                         Program Version 5.0.2 -  RELEASE  -
|  1> ! PW6B95 D3BJ def2-QZVP RIJK def2/JK tightSCF CPCM(THF)
|  2> ! sp Pal2
|  3>
|  4> * xyz 0 1
|  5>   Cl  -1.84404355849360      0.54174251980000      0.00000000000000
|  6>   Li  0.26057852629360      0.54174251980000      0.00000000000000
|  7> *
|  8>
|  9>                          ****END OF INPUT****

CARTESIAN COORDINATES (ANGSTROEM)
---------------------------------
  Cl    -1.844044    0.541743    0.000000
  Li     0.260579    0.541743    0.000000

 Total Charge           Charge          ....    0
 Multiplicity           Mult            ....    1
 Number of Electrons    NEL             ....   20
 Basis Dimension        Dim             ....  105

ORBITAL ENERGIES
----------------

  NO   OCC          E(Eh)            E(eV)
   0   2.0000    -101.847274     -2771.4052
   1   2.0000      -9.489989      -258.2357
   2   2.0000      -7.218788      -196.4332
   3   2.0000      -7.218239      -196.4183
   4   2.0000      -7.218239      -196.4183
   5   2.0000      -2.075961       -56.4898
   6   2.0000      -0.758413       -20.6375
   7   2.0000      -0.310376        -8.4458
   8   2.0000      -0.290113        -7.8944
   9   2.0000      -0.290113        -7.8944
  10   0.0000      -0.019542        -0.5318
  11   0.0000       0.023131         0.6294
  12   0.0000       0.023131         0.6294
  13   0.0000       0.023808         0.6479
  14   0.0000       0.063125         1.7177

MULLIKEN ATOMIC CHARGES
-----------------------
   0 Cl:   -0.635230
   1 Li:    0.635230
Sum of atomic charges:   -0.0000000

LOEWDIN ATOMIC CHARGES
----------------------
   0 Cl:    0.171095
   1 Li:   -0.171095

  Mayer bond orders larger than 0.100000
B(  0-Cl,  1-Li) :   0.6790

Dispersion correction           -0.000521509
FINAL SINGLE POINT ENERGY      -468.224844820207

DIPOLE MOMENT
-------------
                                X             Y             Z
Electronic contribution:      4.35559      -0.00000      -0.00000
Nuclear contribution   :     -1.09181       0.00000       0.00000
                        -----------------------------------------
Total Dipole Moment    :      3.26378      -0.00000      -0.00000
                        -----------------------------------------
Magnitude (a.u.)       :      3.26378
Magnitude (Debye)      :      8.29587

Rotational constants in cm-1:     0.000000     0.655659     0.655659
Rotational constants in MHz :     0.000000 19656.161767 19656.161767

                             ****ORCA TERMINATED NORMALLY****
TOTAL RUN TIME: 0 days 0 hours 0 minutes 9 seconds 411 msec
