                         Program Version 5.0.2 -  RELEASE  -
|  1> ! TPSS D3BJ def2-TZVP RI def2/J CPCM(THF)
|  2> ! Opt numfreq Pal2
|  3>
|  4> * xyz 0 1
|  5> Cl      -1.4567325161      0.5417425198      0.0000000000
|  6> Li      -0.1267325161      0.5417425198      0.0000000000
|  7> *
|  8>
|  9>                          ****END OF INPUT****
 Total Charge           Charge          ....    0
 Multiplicity           Mult            ....    1
 Number of Electrons    NEL             ....   20
Dispersion correction           -0.000921582
FINAL SINGLE POINT ENERGY      -467.611686420331
Dispersion correction            ... done
Dispersion correction           -0.000921506
FINAL SINGLE POINT ENERGY      -467.648456959331
Dispersion correction            ... done
Dispersion correction           -0.000921010
FINAL SINGLE POINT ENERGY      -467.760982014956
Dispersion correction            ... done
FINAL SINGLE POINT ENERGY      -467.818787088396
FINAL SINGLE POINT ENERGY      -467.844096886277
FINAL SINGLE POINT ENERGY      -467.853720991701
FINAL SINGLE POINT ENERGY      -467.856834592621
FINAL SINGLE POINT ENERGY      -467.857295329228
Dispersion correction            ... done
Dispersion correction           -0.000914585
FINAL SINGLE POINT ENERGY      -467.857347824622
Dispersion correction            ... done
Dispersion correction           -0.000914501
FINAL SINGLE POINT ENERGY      -467.857349914852
Dispersion correction            ... done
                    ***********************HURRAY********************

CARTESIAN COORDINATES (ANGSTROEM)
---------------------------------
  Cl    -1.844044    0.541743    0.000000
  Li     0.260579    0.541743    0.000000

 Multiplicity           Mult            ....    1
 Number of Electrons    NEL             ....   20
 Basis Dimension        Dim             ....   51

ORBITAL ENERGIES
----------------

  NO   OCC          E(Eh)            E(eV)
   0   2.0000    -100.908507     -2745.8601
   1   2.0000      -9.159831      -249.2517
   2   2.0000      -6.932925      -188.6545
   3   2.0000      -6.932228      -188.6355
   4   2.0000      -6.932228      -188.6355
   5   2.0000      -1.934240       -52.6333
   6   2.0000      -0.674614       -18.3572
   7   2.0000      -0.258633        -7.0378
   8   2.0000      -0.237932        -6.4745
   9   2.0000      -0.237932        -6.4745
  10   0.0000      -0.027344        -0.7441
  11   0.0000       0.037417         1.0182
  12   0.0000       0.037417         1.0182
  13   0.0000       0.064947         1.7673
  14   0.0000       0.127840         3.4787

MULLIKEN ATOMIC CHARGES
-----------------------
   0 Cl:   -0.814119
   1 Li:    0.814119
Sum of atomic charges:   -0.0000000

LOEWDIN ATOMIC CHARGES
----------------------
   0 Cl:   -0.552773
   1 Li:    0.552773

  Mayer bond orders larger than 0.100000
B(  0-Cl,  1-Li) :   0.3618

Dispersion correction           -0.000914494
FINAL SINGLE POINT ENERGY      -467.857349926565

DIPOLE MOMENT
-------------
                                X             Y             Z
Electronic contribution:      4.35608       0.00000      -0.00000
Nuclear contribution   :     -1.09181       0.00000       0.00000
                        -----------------------------------------
Total Dipole Moment    :      3.26427       0.00000      -0.00000
                        -----------------------------------------
Magnitude (a.u.)       :      3.26427
Magnitude (Debye)      :      8.29711

VIBRATIONAL FREQUENCIES
-----------------------

Scaling factor for frequencies =  1.000000000 (already applied!)

   0:         0.00 cm**-1
   1:         0.00 cm**-1
   2:         0.00 cm**-1
   3:         0.00 cm**-1
   4:         0.00 cm**-1
   5:       507.44 cm**-1

IR SPECTRUM
-----------

 Mode   freq       eps      Int      T**2         TX        TY        TZ
       cm**-1   L/(mol*cm) km/mol    a.u.
----------------------------------------------------------------------------
  5:    507.44   0.033777  170.69  0.020772  (-0.144124  0.000000 -0.000000)

--------------------------
THERMOCHEMISTRY AT 298.15K
--------------------------

Temperature         ... 298.15 K
Pressure            ... 1.00 atm
Total Mass          ... 42.39 AMU
The molecule is recognized as being linear

Throughout the following assumptions are being made:
  (1) The electronic state is orbitally nondegenerate
  (2) There are no thermally accessible electronically excited states
  (3) Hindered rotations indicated by low frequency modes are not
      treated as such but are treated as vibrations and this may
      cause some error
  (4) All equations used are the standard statistical mechanics
      equations for an ideal gas
  (5) All vibrations are strictly harmonic

freq.     507.44  E(vib)   ...       0.14

------------
INNER ENERGY
------------

The inner energy is: U= E(el) + E(ZPE) + E(vib) + E(rot) + E(trans)
    E(el)   - is the total energy from the electronic structure calculation
              = E(kin-el) + E(nuc-el) + E(el-el) + E(nuc-nuc)
    E(ZPE)  - the the zero temperature vibrational energy from the frequency calculation
    E(vib)  - the the finite temperature correction to E(ZPE) due to population
              of excited vibrational states
    E(rot)  - is the rotational thermal energy
    E(trans)- is the translational thermal energy

Summary of contributions to the inner energy U:
Electronic energy                ...   -467.85734993 Eh
Zero point energy                ...      0.00115604 Eh       0.73 kcal/mol
Thermal vibrational correction   ...      0.00021867 Eh       0.14 kcal/mol
Thermal rotational correction    ...      0.00094418 Eh       0.59 kcal/mol
Thermal translational correction ...      0.00141627 Eh       0.89 kcal/mol
-----------------------------------------------------------------------
Total thermal energy                   -467.85361476 Eh

Summary of corrections to the electronic energy:
(perhaps to be used in another calculation)
Total thermal correction                  0.00257913 Eh       1.62 kcal/mol
Non-thermal (ZPE) correction              0.00115604 Eh       0.73 kcal/mol
-----------------------------------------------------------------------
Total correction                          0.00373516 Eh       2.34 kcal/mol

--------
ENTHALPY
--------

The enthalpy is H = U + kB*T
                kB is Boltzmann's constant
Total free energy                 ...   -467.85361476 Eh
Thermal Enthalpy correction       ...      0.00094421 Eh       0.59 kcal/mol
-----------------------------------------------------------------------
Total Enthalpy                    ...   -467.85267055 Eh

Note: Rotational entropy computed according to Herzberg
Infrared and Raman Spectra, Chapter V,1, Van Nostrand Reinhold, 1945
Point Group:  Cinfv, Symmetry Number:   1
Rotational constants in cm-1:     0.000000     0.655659     0.655659

Vibrational entropy computed according to the QRRHO of S. Grimme
Chem.Eur.J. 2012 18 9955

-------
ENTROPY
-------

The entropy contributions are T*S = T*(S(el)+S(vib)+S(rot)+S(trans))
     S(el)   - electronic entropy
     S(vib)  - vibrational entropy
     S(rot)  - rotational entropy
     S(trans)- translational entropy
The entropies will be listed as multiplied by the temperature to get
units of energy

Electronic entropy                ...      0.00000000 Eh      0.00 kcal/mol
Vibrational entropy               ...      0.00030442 Eh      0.19 kcal/mol
Rotational entropy                ...      0.00637882 Eh      4.00 kcal/mol
Translational entropy             ...      0.01765585 Eh     11.08 kcal/mol
-----------------------------------------------------------------------
Final entropy term                ...      0.02433909 Eh     15.27 kcal/mol

-------------------
GIBBS FREE ENERGY
-------------------

The Gibbs free energy is G = H - T*S

Total enthalpy                    ...   -467.85267055 Eh
Total entropy correction          ...     -0.02433909 Eh    -15.27 kcal/mol
-----------------------------------------------------------------------
Final Gibbs free energy         ...   -467.87700964 Eh

For completeness - the Gibbs free energy minus the electronic energy
G-E(el)                           ...     -0.01965972 Eh    -12.34 kcal/mol

                             ****ORCA TERMINATED NORMALLY****
TOTAL RUN TIME: 0 days 0 hours 1 minutes 42 seconds 283 msec
