                         Program Version 5.0.2 -  RELEASE  -
|  1> ! TPSS D3BJ def2-TZVP RI def2/J CPCM(THF)
|  2> ! Opt numfreq Pal2
|  3>
|  4> * xyz -1 1
|  5> O       -2.9259660282      1.3263723730      0.0000000000
|  6> H       -3.2492958399      0.4934487306      0.3776189068
|  7> *
|  8>
|  9>                          ****END OF INPUT****
 Total Charge           Charge          ....   -1
 Multiplicity           Mult            ....    1
 Number of Electrons    NEL             ....   10
Dispersion correction           -0.000178888
FINAL SINGLE POINT ENERGY       -75.935671704061
Dispersion correction            ... done
Dispersion correction           -0.000178894
FINAL SINGLE POINT ENERGY       -75.935676677543
Dispersion correction            ... done
                    ***********************HURRAY********************

CARTESIAN COORDINATES (ANGSTROEM)
---------------------------------
  O     -2.925564    1.327409   -0.000470
  H     -3.249698    0.492413    0.378089

 Multiplicity           Mult            ....    1
 Number of Electrons    NEL             ....   10
 Basis Dimension        Dim             ....   37

ORBITAL ENERGIES
----------------

  NO   OCC          E(Eh)            E(eV)
   0   2.0000     -18.696026      -508.7447
   1   2.0000      -0.714080       -19.4311
   2   2.0000      -0.237714        -6.4685
   3   2.0000      -0.100560        -2.7364
   4   2.0000      -0.100555        -2.7362
   5   0.0000       0.097980         2.6662
   6   0.0000       0.449775        12.2390
   7   0.0000       0.484094        13.1729
   8   0.0000       0.493060        13.4168
   9   0.0000       0.493071        13.4171

MULLIKEN ATOMIC CHARGES
-----------------------
   0 O :   -1.244161
   1 H :    0.244161
Sum of atomic charges:   -1.0000000

LOEWDIN ATOMIC CHARGES
----------------------
   0 O :   -1.066250
   1 H :    0.066250

  Mayer bond orders larger than 0.100000
B(  0-O ,  1-H ) :   0.9533

Dispersion correction           -0.000178894
FINAL SINGLE POINT ENERGY       -75.935676686396

DIPOLE MOMENT
-------------
                                X             Y             Z
Electronic contribution:      0.06553       0.16930      -0.07686
Nuclear contribution   :     -0.28579      -0.73621       0.33377
                        -----------------------------------------
Total Dipole Moment    :     -0.22026      -0.56691       0.25691
                        -----------------------------------------
Magnitude (a.u.)       :      0.66023
Magnitude (Debye)      :      1.67816

VIBRATIONAL FREQUENCIES
-----------------------

Scaling factor for frequencies =  1.000000000 (already applied!)

   0:         0.00 cm**-1
   1:         0.00 cm**-1
   2:         0.00 cm**-1
   3:         0.00 cm**-1
   4:         0.00 cm**-1
   5:      3640.19 cm**-1

IR SPECTRUM
-----------

 Mode   freq       eps      Int      T**2         TX        TY        TZ
       cm**-1   L/(mol*cm) km/mol    a.u.
----------------------------------------------------------------------------
  5:   3640.19   0.015604   78.86  0.001338  ( 0.012059  0.031444 -0.014267)

--------------------------
THERMOCHEMISTRY AT 298.15K
--------------------------

Temperature         ... 298.15 K
Pressure            ... 1.00 atm
Total Mass          ... 17.01 AMU
The molecule is recognized as being linear

Throughout the following assumptions are being made:
  (1) The electronic state is orbitally nondegenerate
  (2) There are no thermally accessible electronically excited states
  (3) Hindered rotations indicated by low frequency modes are not
      treated as such but are treated as vibrations and this may
      cause some error
  (4) All equations used are the standard statistical mechanics
      equations for an ideal gas
  (5) All vibrations are strictly harmonic

freq.    3640.19  E(vib)   ...       0.00

------------
INNER ENERGY
------------

The inner energy is: U= E(el) + E(ZPE) + E(vib) + E(rot) + E(trans)
    E(el)   - is the total energy from the electronic structure calculation
              = E(kin-el) + E(nuc-el) + E(el-el) + E(nuc-nuc)
    E(ZPE)  - the the zero temperature vibrational energy from the frequency calculation
    E(vib)  - the the finite temperature correction to E(ZPE) due to population
              of excited vibrational states
    E(rot)  - is the rotational thermal energy
    E(trans)- is the translational thermal energy

Summary of contributions to the inner energy U:
Electronic energy                ...    -75.93567669 Eh
Zero point energy                ...      0.00829295 Eh       5.20 kcal/mol
Thermal vibrational correction   ...      0.00000000 Eh       0.00 kcal/mol
Thermal rotational correction    ...      0.00094418 Eh       0.59 kcal/mol
Thermal translational correction ...      0.00141627 Eh       0.89 kcal/mol
-----------------------------------------------------------------------
Total thermal energy                    -75.92502328 Eh

Summary of corrections to the electronic energy:
(perhaps to be used in another calculation)
Total thermal correction                  0.00236045 Eh       1.48 kcal/mol
Non-thermal (ZPE) correction              0.00829295 Eh       5.20 kcal/mol
-----------------------------------------------------------------------
Total correction                          0.01065341 Eh       6.69 kcal/mol

--------
ENTHALPY
--------

The enthalpy is H = U + kB*T
                kB is Boltzmann's constant
Total free energy                 ...    -75.92502328 Eh
Thermal Enthalpy correction       ...      0.00094421 Eh       0.59 kcal/mol
-----------------------------------------------------------------------
Total Enthalpy                    ...    -75.92407907 Eh

Note: Rotational entropy computed according to Herzberg
Infrared and Raman Spectra, Chapter V,1, Van Nostrand Reinhold, 1945
Point Group:  Cinfv, Symmetry Number:   1
Rotational constants in cm-1:     0.000000    18.800502    18.800502

Vibrational entropy computed according to the QRRHO of S. Grimme
Chem.Eur.J. 2012 18 9955

-------
ENTROPY
-------

The entropy contributions are T*S = T*(S(el)+S(vib)+S(rot)+S(trans))
     S(el)   - electronic entropy
     S(vib)  - vibrational entropy
     S(rot)  - rotational entropy
     S(trans)- translational entropy
The entropies will be listed as multiplied by the temperature to get
units of energy

Electronic entropy                ...      0.00000000 Eh      0.00 kcal/mol
Vibrational entropy               ...      0.00000000 Eh      0.00 kcal/mol
Rotational entropy                ...      0.00321015 Eh      2.01 kcal/mol
Translational entropy             ...      0.01636225 Eh     10.27 kcal/mol
-----------------------------------------------------------------------
Final entropy term                ...      0.01957240 Eh     12.28 kcal/mol

-------------------
GIBBS FREE ENERGY
-------------------

The Gibbs free energy is G = H - T*S

Total enthalpy                    ...    -75.92407907 Eh
Total entropy correction          ...     -0.01957240 Eh    -12.28 kcal/mol
-----------------------------------------------------------------------
Final Gibbs free energy         ...    -75.94365147 Eh

For completeness - the Gibbs free energy minus the electronic energy
G-E(el)                           ...     -0.00797478 Eh     -5.00 kcal/mol

                             ****ORCA TERMINATED NORMALLY****
TOTAL RUN TIME: 0 days 0 hours 1 minutes 0 seconds 161 msec
