                         Program Version 5.0.2 -  RELEASE  -
|  1> ! PW6B95 D3BJ def2-QZVP RIJK def2/JK tightSCF CPCM(THF)
|  2> ! sp Pal4
|  3>
|  4> * xyz -1 1
|  5> O   -2.92556381450032      1.32740850789273     -0.00046974789233
|  6>   H   -3.24969805359968      0.49241259570727      0.37808865469233
|  7> *
|  8>
|  9>                          ****END OF INPUT****

CARTESIAN COORDINATES (ANGSTROEM)
---------------------------------
  O     -2.925564    1.327409   -0.000470
  H     -3.249698    0.492413    0.378089

 Total Charge           Charge          ....   -1
 Multiplicity           Mult            ....    1
 Number of Electrons    NEL             ....   10
 Basis Dimension        Dim             ....   87

ORBITAL ENERGIES
----------------

  NO   OCC          E(Eh)            E(eV)
   0   2.0000     -19.131495      -520.5944
   1   2.0000      -0.824228       -22.4284
   2   2.0000      -0.314870        -8.5680
   3   2.0000      -0.181668        -4.9434
   4   2.0000      -0.181663        -4.9433
   5   0.0000       0.083546         2.2734
   6   0.0000       0.294051         8.0015
   7   0.0000       0.322225         8.7682
   8   0.0000       0.322235         8.7684
   9   0.0000       0.387103        10.5336

MULLIKEN ATOMIC CHARGES
-----------------------
   0 O :   -1.164412
   1 H :    0.164412
Sum of atomic charges:   -1.0000000

LOEWDIN ATOMIC CHARGES
----------------------
   0 O :   -0.399134
   1 H :   -0.600866

  Mayer bond orders larger than 0.100000
B(  0-O ,  1-H ) :   1.0946

Dispersion correction           -0.000053727
FINAL SINGLE POINT ENERGY       -76.026552478229

DIPOLE MOMENT
-------------
                                X             Y             Z
Electronic contribution:      0.06456       0.16707      -0.07589
Nuclear contribution   :     -0.28579      -0.73621       0.33377
                        -----------------------------------------
Total Dipole Moment    :     -0.22123      -0.56914       0.25788
                        -----------------------------------------
Magnitude (a.u.)       :      0.66285
Magnitude (Debye)      :      1.68483

Rotational constants in cm-1:     0.000000    18.800502    18.800502
Rotational constants in MHz :     0.000000 563624.881746 563624.881746

                             ****ORCA TERMINATED NORMALLY****
TOTAL RUN TIME: 0 days 0 hours 0 minutes 7 seconds 0 msec
