                         Program Version 5.0.2 -  RELEASE  -
|  1> ! TPSS D3BJ def2-TZVP RI def2/J CPCM(THF)
|  2> ! Opt numfreq Pal4
|  3>
|  4> * xyz 0 1
|  5> C        -2.69567634634206    1.41897523081955   -0.05984102051493
|  6> C        -2.89414867121397    0.05050949267176    0.07611587562425
|  7> C        -1.79386091403176   -0.78421216308561    0.20788436854003
|  8> C        -0.50928594276036   -0.28053538699702    0.20440527589661
|  9> C        -0.29713582934760    1.09147692659901    0.06205795990778
| 10> C        -1.39802539170615    1.92467434378225   -0.06459996895639
| 11> H        -1.25534148987242    2.99070426696624   -0.18283618998207
| 12> H        -3.88489546979330   -0.37505352044288    0.08466396708163
| 13> H        -1.95381743605293   -1.84666081202244    0.32076901592965
| 14> H         0.33275457821490   -0.94326523689147    0.32654873290731
| 15> O        -3.69234447860876    2.34683363161921   -0.19232861416834
| 16> C        -5.03324394598759    1.90323694008098   -0.18343513678651
| 17> H        -5.23374097668982    1.22148199993325   -1.01536512674912
| 18> H        -5.63614041621340    2.80238366834809   -0.29782163156879
| 19> H        -5.28405144222628    1.41269370239718    0.76203722443230
| 20> C         1.06965738290206    1.67430745368056    0.06080432627813
| 21> C         2.09522495283738    1.00992445093128   -0.48647209486190
| 22> H         3.08420214491062    1.43660533635746   -0.49994099624516
| 23> Li        1.30340292145328    4.32537152704249    1.22454547141414
| 24> H         1.96146573052738    0.05436349451452   -0.95668762262677
| 25> O         1.19790878350139    2.87643355129486    0.60949634714811
| 26> *
| 27>
| 28>                          ****END OF INPUT****
 Total Charge           Charge          ....    0
 Multiplicity           Mult            ....    1
 Number of Electrons    NEL             ....   82
Dispersion correction           -0.028755279
FINAL SINGLE POINT ENERGY      -506.680252672300
Dispersion correction            ... done
Dispersion correction           -0.028690067
FINAL SINGLE POINT ENERGY      -506.682731580981
Dispersion correction            ... done
Dispersion correction           -0.028682569
FINAL SINGLE POINT ENERGY      -506.683472377566
Dispersion correction            ... done
FINAL SINGLE POINT ENERGY      -506.683851501510
FINAL SINGLE POINT ENERGY      -506.684279136399
FINAL SINGLE POINT ENERGY      -506.684453598450
FINAL SINGLE POINT ENERGY      -506.684504882146
Dispersion correction            ... done
Dispersion correction           -0.028669796
FINAL SINGLE POINT ENERGY      -506.684525220641
Dispersion correction            ... done
Dispersion correction           -0.028667698
FINAL SINGLE POINT ENERGY      -506.684527843808
Dispersion correction            ... done
                    ***********************HURRAY********************

CARTESIAN COORDINATES (ANGSTROEM)
---------------------------------
  C     -2.699224    1.438682   -0.004760
  C     -2.925390    0.059406   -0.020839
  C     -1.817440   -0.798648   -0.005214
  C     -0.518856   -0.305702    0.020904
  C     -0.286255    1.084951    0.031440
  C     -1.391292    1.939648    0.024827
  H     -1.237917    3.013653    0.037905
  H     -3.928789   -0.350209   -0.038714
  H     -1.984923   -1.872784   -0.007523
  H      0.314039   -1.000093    0.049642
  O     -3.696336    2.384342   -0.014533
  C     -5.049747    1.905024   -0.052856
  H     -5.227766    1.313132   -0.958258
  H     -5.675210    2.797994   -0.062366
  H     -5.274297    1.300001    0.833383
  C      1.092542    1.682643    0.054769
  C      2.192788    0.913022   -0.178778
  H      3.182978    1.359321   -0.162281
  Li     1.141179    4.613954    0.557859
  H      2.118583   -0.144736   -0.400585
  O      1.154241    2.976648    0.295981

 Multiplicity           Mult            ....    1
 Number of Electrons    NEL             ....   82
 Basis Dimension        Dim             ....  409

ORBITAL ENERGIES
----------------

  NO   OCC          E(Eh)            E(eV)
   0   2.0000     -18.910369      -514.5773
   1   2.0000     -18.824278      -512.2346
   2   2.0000     -10.039521      -273.1893
   3   2.0000     -10.032161      -272.9890
   4   2.0000     -10.019825      -272.6533
   5   2.0000      -9.987010      -271.7604
   6   2.0000      -9.983813      -271.6734
   7   2.0000      -9.980507      -271.5834
   8   2.0000      -9.975189      -271.4387
   9   2.0000      -9.974906      -271.4310
  10   2.0000      -9.940614      -270.4979
  11   2.0000      -1.908006       -51.9195
  12   2.0000      -0.987934       -26.8831
  13   2.0000      -0.900401       -24.5012
  14   2.0000      -0.784734       -21.3537
  15   2.0000      -0.697108       -18.9693
  16   2.0000      -0.692315       -18.8389
  17   2.0000      -0.643643       -17.5144
  18   2.0000      -0.634263       -17.2592
  19   2.0000      -0.555366       -15.1123
  20   2.0000      -0.541874       -14.7451
  21   2.0000      -0.492966       -13.4143
  22   2.0000      -0.458155       -12.4670
  23   2.0000      -0.432030       -11.7561
  24   2.0000      -0.430004       -11.7010
  25   2.0000      -0.417485       -11.3603
  26   2.0000      -0.402242       -10.9456
  27   2.0000      -0.381358       -10.3773
  28   2.0000      -0.377264       -10.2659
  29   2.0000      -0.358475        -9.7546
  30   2.0000      -0.346277        -9.4227
  31   2.0000      -0.333563        -9.0767
  32   2.0000      -0.315955        -8.5976
  33   2.0000      -0.312907        -8.5146
  34   2.0000      -0.310798        -8.4572
  35   2.0000      -0.284244        -7.7347
  36   2.0000      -0.277318        -7.5462
  37   2.0000      -0.222837        -6.0637
  38   2.0000      -0.204348        -5.5606
  39   2.0000      -0.195672        -5.3245
  40   2.0000      -0.161547        -4.3959
  41   0.0000      -0.044761        -1.2180
  42   0.0000      -0.025248        -0.6870
  43   0.0000      -0.021589        -0.5875
  44   0.0000       0.033934         0.9234
  45   0.0000       0.041630         1.1328

MULLIKEN ATOMIC CHARGES
-----------------------
   0 C :    0.317436
   1 C :   -0.276626
   2 C :   -0.152099
   3 C :   -0.232438
   4 C :    0.143375
   5 C :   -0.291610
   6 H :    0.092459
   7 H :    0.135834
   8 H :    0.122628
   9 H :    0.107676
  10 O :   -0.263981
  11 C :   -0.224701
  12 H :    0.138883
  13 H :    0.150603
  14 H :    0.138705
  15 C :    0.353976
  16 C :   -0.497644
  17 H :    0.115533
  18 Li:    0.827769
  19 H :    0.129336
  20 O :   -0.835114
Sum of atomic charges:   -0.0000000

LOEWDIN ATOMIC CHARGES
----------------------
   0 C :   -0.258973
   1 C :   -0.153235
   2 C :   -0.152415
   3 C :   -0.129817
   4 C :   -0.113407
   5 C :   -0.094073
   6 H :    0.152289
   7 H :    0.149823
   8 H :    0.146156
   9 H :    0.146233
  10 O :    0.213407
  11 C :   -0.314225
  12 H :    0.111296
  13 H :    0.115722
  14 H :    0.111134
  15 C :   -0.373837
  16 C :   -0.299109
  17 H :    0.111225
  18 Li:    0.678081
  19 H :    0.113703
  20 O :   -0.159977

  Mayer bond orders larger than 0.100000
B(  0-C ,  1-C ) :   1.2889 B(  0-C ,  5-C ) :   1.3404 B(  0-C , 10-O ) :   1.1317
B(  1-C ,  2-C ) :   1.3379 B(  1-C ,  7-H ) :   0.9633 B(  2-C ,  3-C ) :   1.4740
B(  2-C ,  8-H ) :   0.9708 B(  3-C ,  4-C ) :   1.3102 B(  3-C ,  9-H ) :   0.9747
B(  4-C ,  5-C ) :   1.3781 B(  4-C , 15-C ) :   0.9822 B(  5-C ,  6-H ) :   0.9912
B( 10-O , 11-C ) :   0.9440 B( 11-C , 12-H ) :   0.9580 B( 11-C , 13-H ) :   0.9630
B( 11-C , 14-H ) :   0.9579 B( 15-C , 16-C ) :   1.7101 B( 15-C , 20-O ) :   1.0573
B( 16-C , 17-H ) :   0.9630 B( 16-C , 19-H ) :   0.9526 B( 16-C , 20-O ) :   0.1291
B( 18-Li, 20-O ) :   0.3181

Dispersion correction           -0.028666742
FINAL SINGLE POINT ENERGY      -506.684528502545

DIPOLE MOMENT
-------------
                                X             Y             Z
Electronic contribution:      7.80307      11.43495       1.96215
Nuclear contribution   :     -8.54419      -8.64193      -1.44971
                        -----------------------------------------
Total Dipole Moment    :     -0.74112       2.79302       0.51244
                        -----------------------------------------
Magnitude (a.u.)       :      2.93476
Magnitude (Debye)      :      7.45956

VIBRATIONAL FREQUENCIES
-----------------------

Scaling factor for frequencies =  1.000000000 (already applied!)

   0:         0.00 cm**-1
   1:         0.00 cm**-1
   2:         0.00 cm**-1
   3:         0.00 cm**-1
   4:         0.00 cm**-1
   5:         0.00 cm**-1
   6:        20.63 cm**-1
   7:        64.81 cm**-1
   8:        78.47 cm**-1
   9:        91.72 cm**-1
  10:       158.87 cm**-1
  11:       169.02 cm**-1
  12:       194.14 cm**-1
  13:       252.13 cm**-1
  14:       276.50 cm**-1
  15:       347.10 cm**-1
  16:       397.81 cm**-1
  17:       428.09 cm**-1
  18:       476.98 cm**-1
  19:       515.38 cm**-1
  20:       553.73 cm**-1
  21:       579.18 cm**-1
  22:       656.18 cm**-1
  23:       673.64 cm**-1
  24:       679.69 cm**-1
  25:       702.78 cm**-1
  26:       733.62 cm**-1
  27:       739.32 cm**-1
  28:       773.81 cm**-1
  29:       861.82 cm**-1
  30:       868.87 cm**-1
  31:       881.13 cm**-1
  32:       944.53 cm**-1
  33:       992.95 cm**-1
  34:      1028.77 cm**-1
  35:      1031.34 cm**-1
  36:      1092.77 cm**-1
  37:      1098.20 cm**-1
  38:      1148.35 cm**-1
  39:      1173.20 cm**-1
  40:      1182.37 cm**-1
  41:      1221.20 cm**-1
  42:      1281.41 cm**-1
  43:      1318.56 cm**-1
  44:      1350.64 cm**-1
  45:      1399.34 cm**-1
  46:      1433.58 cm**-1
  47:      1452.96 cm**-1
  48:      1471.12 cm**-1
  49:      1486.16 cm**-1
  50:      1489.83 cm**-1
  51:      1567.97 cm**-1
  52:      1591.11 cm**-1
  53:      1604.47 cm**-1
  54:      2982.44 cm**-1
  55:      3042.07 cm**-1
  56:      3106.75 cm**-1
  57:      3113.57 cm**-1
  58:      3131.05 cm**-1
  59:      3158.09 cm**-1
  60:      3160.44 cm**-1
  61:      3171.94 cm**-1
  62:      3201.07 cm**-1

IR SPECTRUM
-----------

 Mode   freq       eps      Int      T**2         TX        TY        TZ
       cm**-1   L/(mol*cm) km/mol    a.u.
----------------------------------------------------------------------------
  6:     20.63   0.004002   20.23  0.060547  (-0.111639 -0.031795  0.216963)
  7:     64.81   0.017646   89.18  0.084968  (-0.274437 -0.029100  0.093839)
  8:     78.47   0.009768   49.36  0.038847  ( 0.130318 -0.003707  0.147818)
  9:     91.72   0.012663   63.99  0.043086  ( 0.049837 -0.031466  0.199028)
 10:    158.87   0.001354    6.84  0.002659  (-0.024972 -0.010626  0.043844)
 11:    169.02   0.001578    7.97  0.002913  (-0.046140 -0.023051 -0.015895)
 12:    194.14   0.000095    0.48  0.000153  ( 0.005480  0.005061 -0.009864)
 13:    252.13   0.000139    0.70  0.000172  (-0.001785  0.004875 -0.012035)
 14:    276.50   0.001723    8.71  0.001945  ( 0.037254 -0.023546 -0.001617)
 15:    347.10   0.002852   14.41  0.002564  ( 0.045017  0.023130  0.001649)
 16:    397.81   0.000949    4.79  0.000744  (-0.016553  0.021632  0.001468)
 17:    428.09   0.000540    2.73  0.000394  (-0.002061  0.005746  0.018876)
 18:    476.98   0.002440   12.33  0.001596  ( 0.020499  0.031216  0.014193)
 19:    515.38   0.000572    2.89  0.000346  ( 0.006104  0.015400 -0.008463)
 20:    553.73   0.003506   17.72  0.001976  ( 0.008407  0.043625  0.001366)
 21:    579.18   0.004458   22.53  0.002402  (-0.046965 -0.013752 -0.002632)
 22:    656.18   0.000318    1.61  0.000151  (-0.008938  0.005460  0.006447)
 23:    673.64   0.009616   48.60  0.004455  ( 0.005669 -0.013923  0.065029)
 24:    679.69   0.009713   49.09  0.004460  ( 0.014032  0.065111  0.004829)
 25:    702.78   0.001741    8.80  0.000773  (-0.008219 -0.003857 -0.026284)
 26:    733.62   0.027352  138.22  0.011635  ( 0.015866 -0.051747  0.093301)
 27:    739.32   0.021238  107.33  0.008964  ( 0.026617 -0.069669 -0.058328)
 28:    773.81   0.004510   22.79  0.001819  (-0.005168  0.004559  0.042089)
 29:    861.82   0.000273    1.38  0.000099  (-0.007357  0.004240 -0.005182)
 30:    868.87   0.003585   18.12  0.001287  ( 0.028076 -0.022033 -0.003709)
 31:    881.13   0.005674   28.67  0.002009  (-0.001827 -0.001320  0.044770)
 32:    944.53   0.000045    0.23  0.000015  ( 0.001818 -0.002483 -0.002340)
 33:    992.95   0.001376    6.95  0.000432  (-0.020499 -0.003462  0.000505)
 34:   1028.77   0.025240  127.55  0.007656  ( 0.079226  0.036397  0.007405)
 35:   1031.34   0.024640  124.52  0.007456  ( 0.064112 -0.056509 -0.012323)
 36:   1092.77   0.012608   63.72  0.003601  (-0.045151 -0.038150 -0.010318)
 37:   1098.20   0.007887   39.86  0.002241  (-0.007503  0.046614  0.003471)
 38:   1148.35   0.000331    1.67  0.000090  ( 0.000236  0.000432 -0.009475)
 39:   1173.20   0.002785   14.07  0.000741  (-0.012879  0.023838  0.002559)
 40:   1182.37   0.003940   19.91  0.001040  (-0.025551  0.019549  0.002190)
 41:   1221.20   0.070029  353.90  0.017895  ( 0.093596 -0.095425 -0.005367)
 42:   1281.41   0.015012   75.86  0.003656  ( 0.059072  0.009997  0.008144)
 43:   1318.56   0.048856  246.90  0.011563  (-0.034709 -0.099801 -0.019940)
 44:   1350.64   0.009401   47.51  0.002172  ( 0.036633  0.028088  0.006414)
 45:   1399.34   0.035532  179.56  0.007924  (-0.001599  0.087002  0.018760)
 46:   1433.58   0.010981   55.49  0.002390  ( 0.025657 -0.041537 -0.002615)
 47:   1452.96   0.001616    8.17  0.000347  ( 0.013824 -0.012310 -0.002103)
 48:   1471.12   0.001981   10.01  0.000420  ( 0.001135 -0.000471 -0.020462)
 49:   1486.16   0.009334   47.17  0.001960  ( 0.036687 -0.024777 -0.000417)
 50:   1489.83   0.018155   91.75  0.003803  ( 0.049694 -0.036347 -0.003496)
 51:   1567.97   0.089651  453.06  0.017843  ( 0.087247 -0.100164 -0.014069)
 52:   1591.11   0.014458   73.07  0.002836  (-0.013914  0.047604  0.019389)
 53:   1604.47   0.019769   99.91  0.003845  (-0.061877 -0.003843 -0.001239)
 54:   2982.44   0.013780   69.64  0.001442  ( 0.036859  0.009107  0.000581)
 55:   3042.07   0.010458   52.85  0.001073  ( 0.000462  0.000300 -0.032749)
 56:   3106.75   0.005897   29.80  0.000592  ( 0.013568 -0.020205  0.000011)
 57:   3113.57   0.003393   17.15  0.000340  (-0.018163 -0.003052  0.000945)
 58:   3131.05   0.004272   21.59  0.000426  ( 0.006760  0.019496  0.000139)
 59:   3158.09   0.005723   28.92  0.000565  ( 0.014239 -0.019023  0.000940)
 60:   3160.44   0.001263    6.38  0.000125  (-0.003521  0.010593  0.000247)
 61:   3171.94   0.001908    9.64  0.000188  (-0.011411 -0.007583 -0.000185)
 62:   3201.07   0.004024   20.34  0.000392  (-0.008385 -0.017715 -0.002861)

--------------------------
THERMOCHEMISTRY AT 298.15K
--------------------------

Temperature         ... 298.15 K
Pressure            ... 1.00 atm
Total Mass          ... 156.11 AMU

Throughout the following assumptions are being made:
  (1) The electronic state is orbitally nondegenerate
  (2) There are no thermally accessible electronically excited states
  (3) Hindered rotations indicated by low frequency modes are not
      treated as such but are treated as vibrations and this may
      cause some error
  (4) All equations used are the standard statistical mechanics
      equations for an ideal gas
  (5) All vibrations are strictly harmonic

freq.      20.63  E(vib)   ...       0.56
freq.      64.81  E(vib)   ...       0.50
freq.      78.47  E(vib)   ...       0.49
freq.      91.72  E(vib)   ...       0.47
freq.     158.87  E(vib)   ...       0.39
freq.     169.02  E(vib)   ...       0.38
freq.     194.14  E(vib)   ...       0.36
freq.     252.13  E(vib)   ...       0.30
freq.     276.50  E(vib)   ...       0.28
freq.     347.10  E(vib)   ...       0.23
freq.     397.81  E(vib)   ...       0.20
freq.     428.09  E(vib)   ...       0.18
freq.     476.98  E(vib)   ...       0.15
freq.     515.38  E(vib)   ...       0.13
freq.     553.73  E(vib)   ...       0.12
freq.     579.18  E(vib)   ...       0.11
freq.     656.18  E(vib)   ...       0.08
freq.     673.64  E(vib)   ...       0.08
freq.     679.69  E(vib)   ...       0.08
freq.     702.78  E(vib)   ...       0.07
freq.     733.62  E(vib)   ...       0.06
freq.     739.32  E(vib)   ...       0.06
freq.     773.81  E(vib)   ...       0.05
freq.     861.82  E(vib)   ...       0.04
freq.     868.87  E(vib)   ...       0.04
freq.     881.13  E(vib)   ...       0.04
freq.     944.53  E(vib)   ...       0.03
freq.     992.95  E(vib)   ...       0.02
freq.    1028.77  E(vib)   ...       0.02
freq.    1031.34  E(vib)   ...       0.02
freq.    1092.77  E(vib)   ...       0.02
freq.    1098.20  E(vib)   ...       0.02
freq.    1148.35  E(vib)   ...       0.01
freq.    1173.20  E(vib)   ...       0.01
freq.    1182.37  E(vib)   ...       0.01
freq.    1221.20  E(vib)   ...       0.01
freq.    1281.41  E(vib)   ...       0.01
freq.    1318.56  E(vib)   ...       0.01
freq.    1350.64  E(vib)   ...       0.01
freq.    1399.34  E(vib)   ...       0.00
freq.    1433.58  E(vib)   ...       0.00
freq.    1452.96  E(vib)   ...       0.00
freq.    1471.12  E(vib)   ...       0.00
freq.    1486.16  E(vib)   ...       0.00
freq.    1489.83  E(vib)   ...       0.00
freq.    1567.97  E(vib)   ...       0.00
freq.    1591.11  E(vib)   ...       0.00
freq.    1604.47  E(vib)   ...       0.00
freq.    2982.44  E(vib)   ...       0.00
freq.    3042.07  E(vib)   ...       0.00
freq.    3106.75  E(vib)   ...       0.00
freq.    3113.57  E(vib)   ...       0.00
freq.    3131.05  E(vib)   ...       0.00
freq.    3158.09  E(vib)   ...       0.00
freq.    3160.44  E(vib)   ...       0.00
freq.    3171.94  E(vib)   ...       0.00
freq.    3201.07  E(vib)   ...       0.00

------------
INNER ENERGY
------------

The inner energy is: U= E(el) + E(ZPE) + E(vib) + E(rot) + E(trans)
    E(el)   - is the total energy from the electronic structure calculation
              = E(kin-el) + E(nuc-el) + E(el-el) + E(nuc-nuc)
    E(ZPE)  - the the zero temperature vibrational energy from the frequency calculation
    E(vib)  - the the finite temperature correction to E(ZPE) due to population
              of excited vibrational states
    E(rot)  - is the rotational thermal energy
    E(trans)- is the translational thermal energy

Summary of contributions to the inner energy U:
Electronic energy                ...   -506.68452851 Eh
Zero point energy                ...      0.15629055 Eh      98.07 kcal/mol
Thermal vibrational correction   ...      0.00904840 Eh       5.68 kcal/mol
Thermal rotational correction    ...      0.00141627 Eh       0.89 kcal/mol
Thermal translational correction ...      0.00141627 Eh       0.89 kcal/mol
-----------------------------------------------------------------------
Total thermal energy                   -506.51635701 Eh

Summary of corrections to the electronic energy:
(perhaps to be used in another calculation)
Total thermal correction                  0.01188095 Eh       7.46 kcal/mol
Non-thermal (ZPE) correction              0.15629055 Eh      98.07 kcal/mol
-----------------------------------------------------------------------
Total correction                          0.16817150 Eh     105.53 kcal/mol

--------
ENTHALPY
--------

The enthalpy is H = U + kB*T
                kB is Boltzmann's constant
Total free energy                 ...   -506.51635701 Eh
Thermal Enthalpy correction       ...      0.00094421 Eh       0.59 kcal/mol
-----------------------------------------------------------------------
Total Enthalpy                    ...   -506.51541280 Eh

Note: Only C1 symmetry has been detected, increase convergence thresholds
      if your molecule has a higher symmetry. Symmetry factor of 1.0 is
      used for the rotational entropy correction.

Note: Rotational entropy computed according to Herzberg
Infrared and Raman Spectra, Chapter V,1, Van Nostrand Reinhold, 1945
Point Group:  C1, Symmetry Number:   1
Rotational constants in cm-1:     0.060382     0.021246     0.015828

Vibrational entropy computed according to the QRRHO of S. Grimme
Chem.Eur.J. 2012 18 9955

-------
ENTROPY
-------

The entropy contributions are T*S = T*(S(el)+S(vib)+S(rot)+S(trans))
     S(el)   - electronic entropy
     S(vib)  - vibrational entropy
     S(rot)  - rotational entropy
     S(trans)- translational entropy
The entropies will be listed as multiplied by the temperature to get
units of energy

Electronic entropy                ...      0.00000000 Eh      0.00 kcal/mol
Vibrational entropy               ...      0.01600712 Eh     10.04 kcal/mol
Rotational entropy                ...      0.01461157 Eh      9.17 kcal/mol
Translational entropy             ...      0.01950204 Eh     12.24 kcal/mol
-----------------------------------------------------------------------
Final entropy term                ...      0.05012073 Eh     31.45 kcal/mol

In case the symmetry of your molecule has not been determined correctly
or in case you have a reason to use a different symmetry number we print
out the resulting rotational entropy values for sn=1,12 :
 --------------------------------------------------------
|  sn= 1 | S(rot)=       0.01461157 Eh      9.17 kcal/mol|
|  sn= 2 | S(rot)=       0.01395712 Eh      8.76 kcal/mol|
|  sn= 3 | S(rot)=       0.01357428 Eh      8.52 kcal/mol|
|  sn= 4 | S(rot)=       0.01330266 Eh      8.35 kcal/mol|
|  sn= 5 | S(rot)=       0.01309197 Eh      8.22 kcal/mol|
|  sn= 6 | S(rot)=       0.01291983 Eh      8.11 kcal/mol|

                             ****ORCA TERMINATED NORMALLY****
TOTAL RUN TIME: 0 days 2 hours 29 minutes 12 seconds 122 msec
