                         Program Version 5.0.2 -  RELEASE  -
|  1> ! PW6B95 D3BJ def2-QZVP RIJK def2/JK tightSCF CPCM(THF)
|  2> ! sp Pal4
|  3>
|  4> * xyz 0 1
|  5> C   -2.69922352099174      1.43868194812120     -0.00476005994551
|  6>   C   -2.92538989114377      0.05940610750948     -0.02083870932458
|  7>   C   -1.81744002171621     -0.79864782770726     -0.00521426999708
|  8>   C   -0.51885615780343     -0.30570232883710      0.02090358436957
|  9>   C   -0.28625514895928      1.08495127956061      0.03143955806915
| 10>   C   -1.39129220722896      1.93964821560908      0.02482655913019
| 11>   H   -1.23791663180124      3.01365319270435      0.03790504686323
| 12>   H   -3.92878851614810     -0.35020856969760     -0.03871420533872
| 13>   H   -1.98492322010044     -1.87278396039022     -0.00752260181595
| 14>   H   0.31403860272549     -1.00009281790575      0.04964152678840
| 15>   O   -3.69633599632440      2.38434204547688     -0.01453346650310
| 16>   C   -5.04974743253038      1.90502353040020     -0.05285552882167
| 17>   H   -5.22776566971995      1.31313150270585     -0.95825803836185
| 18>   H   -5.67520994838619      2.79799432710452     -0.06236638382933
| 19>   H   -5.27429659604774      1.30000103456875      0.83338287135206
| 20>   C   1.09254203110824      1.68264329656627      0.05476852594799
| 21>   C   2.19278756141991      0.91302150446395     -0.17877767706498
| 22>   H   3.18297811367786      1.35932093684127     -0.16228136929522
| 23>   Li  1.14117877155500      4.61395365194360      0.55785890307062
| 24>   H   2.11858256779180     -0.14473608231497     -0.40058532720378
| 25>   O   1.15424105412414      2.97664791087616      0.29598122461050
| 26> *
| 27>
| 28>                          ****END OF INPUT****

CARTESIAN COORDINATES (ANGSTROEM)
---------------------------------
  C     -2.699224    1.438682   -0.004760
  C     -2.925390    0.059406   -0.020839
  C     -1.817440   -0.798648   -0.005214
  C     -0.518856   -0.305702    0.020904
  C     -0.286255    1.084951    0.031440
  C     -1.391292    1.939648    0.024827
  H     -1.237917    3.013653    0.037905
  H     -3.928789   -0.350209   -0.038714
  H     -1.984923   -1.872784   -0.007523
  H      0.314039   -1.000093    0.049642
  O     -3.696336    2.384342   -0.014533
  C     -5.049747    1.905024   -0.052856
  H     -5.227766    1.313132   -0.958258
  H     -5.675210    2.797994   -0.062366
  H     -5.274297    1.300001    0.833383
  C      1.092542    1.682643    0.054769
  C      2.192788    0.913022   -0.178778
  H      3.182978    1.359321   -0.162281
  Li     1.141179    4.613954    0.557859
  H      2.118583   -0.144736   -0.400585
  O      1.154241    2.976648    0.295981

 Total Charge           Charge          ....    0
 Multiplicity           Mult            ....    1
 Number of Electrons    NEL             ....   82
 Basis Dimension        Dim             ....  932

ORBITAL ENERGIES
----------------

  NO   OCC          E(Eh)            E(eV)
   0   2.0000     -19.324429      -525.8445
   1   2.0000     -19.234212      -523.3895
   2   2.0000     -10.357725      -281.8480
   3   2.0000     -10.341239      -281.3994
   4   2.0000     -10.337574      -281.2997
   5   2.0000     -10.303822      -280.3813
   6   2.0000     -10.298473      -280.2357
   7   2.0000     -10.294475      -280.1269
   8   2.0000     -10.289216      -279.9838
   9   2.0000     -10.289030      -279.9787
  10   2.0000     -10.250633      -278.9339
  11   2.0000      -2.047352       -55.7113
  12   2.0000      -1.088621       -29.6229
  13   2.0000      -0.998979       -27.1836
  14   2.0000      -0.873542       -23.7703
  15   2.0000      -0.780323       -21.2337
  16   2.0000      -0.773990       -21.0613
  17   2.0000      -0.722762       -19.6674
  18   2.0000      -0.711047       -19.3486
  19   2.0000      -0.627517       -17.0756
  20   2.0000      -0.613830       -16.7032
  21   2.0000      -0.559902       -15.2357
  22   2.0000      -0.523916       -14.2565
  23   2.0000      -0.496554       -13.5119
  24   2.0000      -0.494325       -13.4513
  25   2.0000      -0.482769       -13.1368
  26   2.0000      -0.465126       -12.6567
  27   2.0000      -0.442924       -12.0526
  28   2.0000      -0.436497       -11.8777
  29   2.0000      -0.418469       -11.3871
  30   2.0000      -0.404586       -11.0093
  31   2.0000      -0.390431       -10.6242
  32   2.0000      -0.374409       -10.1882
  33   2.0000      -0.370445       -10.0803
  34   2.0000      -0.368471       -10.0266
  35   2.0000      -0.342043        -9.3075
  36   2.0000      -0.334448        -9.1008
  37   2.0000      -0.269964        -7.3461
  38   2.0000      -0.264228        -7.1900
  39   2.0000      -0.240437        -6.5426
  40   2.0000      -0.204540        -5.5658
  41   0.0000      -0.021193        -0.5767
  42   0.0000      -0.016413        -0.4466
  43   0.0000       0.004257         0.1158
  44   0.0000       0.019517         0.5311
  45   0.0000       0.022949         0.6245

MULLIKEN ATOMIC CHARGES
-----------------------
   0 C :    0.102127
   1 C :   -0.119883
   2 C :   -0.187097
   3 C :   -0.124953
   4 C :    0.038164
   5 C :   -0.026435
   6 H :    0.103858
   7 H :    0.114357
   8 H :    0.124100
   9 H :    0.107749
  10 O :   -0.383128
  11 C :   -0.075712
  12 H :    0.106100
  13 H :    0.127254
  14 H :    0.106289
  15 C :    0.133916
  16 C :   -0.386588
  17 H :    0.106497
  18 Li:    0.481527
  19 H :    0.080236
  20 O :   -0.428377
Sum of atomic charges:    0.0000000

LOEWDIN ATOMIC CHARGES
----------------------
   0 C :   -0.350159
   1 C :    0.049208
   2 C :    0.051399
   3 C :    0.066540
   4 C :   -0.087742
   5 C :    0.095239
   6 H :   -0.036967
   7 H :   -0.062024
   8 H :   -0.054807
   9 H :   -0.058029
  10 O :    0.487473
  11 C :    0.064319
  12 H :   -0.062444
  13 H :   -0.064999
  14 H :   -0.062576
  15 C :   -0.456084
  16 C :    0.129867
  17 H :   -0.100219
  18 Li:    0.141691
  19 H :   -0.104509
  20 O :    0.414822

  Mayer bond orders larger than 0.100000
B(  0-C ,  1-C ) :   1.3587 B(  0-C ,  5-C ) :   1.2891 B(  0-C , 10-O ) :   1.1217
B(  1-C ,  2-C ) :   1.3393 B(  1-C ,  7-H ) :   0.9561 B(  2-C ,  3-C ) :   1.4380
B(  2-C ,  8-H ) :   0.9533 B(  3-C ,  4-C ) :   1.2789 B(  3-C ,  9-H ) :   0.9565
B(  4-C ,  5-C ) :   1.3182 B(  4-C , 15-C ) :   0.9710 B(  5-C ,  6-H ) :   0.9531
B( 10-O , 11-C ) :   0.9034 B( 11-C , 12-H ) :   0.9621 B( 11-C , 13-H ) :   0.9677
B( 11-C , 14-H ) :   0.9622 B( 15-C , 16-C ) :   1.6757 B( 15-C , 20-O ) :   1.1821
B( 16-C , 17-H ) :   0.9682 B( 16-C , 19-H ) :   0.9819 B( 18-Li, 20-O ) :   0.9193

Dispersion correction           -0.011771148
FINAL SINGLE POINT ENERGY      -507.259355100534

DIPOLE MOMENT
-------------
                                X             Y             Z
Electronic contribution:      7.78275      11.33023       1.95498
Nuclear contribution   :     -8.54419      -8.64193      -1.44971
                        -----------------------------------------
Total Dipole Moment    :     -0.76143       2.68831       0.50528
                        -----------------------------------------
Magnitude (a.u.)       :      2.83938
Magnitude (Debye)      :      7.21713

Rotational constants in cm-1:     0.060382     0.021246     0.015828
Rotational constants in MHz :  1810.210976   636.946923   474.503952

                             ****ORCA TERMINATED NORMALLY****
TOTAL RUN TIME: 0 days 0 hours 11 minutes 2 seconds 666 msec
