                         Program Version 5.0.2 -  RELEASE  -
|  1> ! TPSS D3BJ def2-TZVP RI def2/J CPCM(THF)
|  2> ! Opt numfreq Pal4
|  3>
|  4> * xyz 0 1
|  5> C         3.08279037123496   -1.68420331416736   -1.04558207329676
|  6> C         3.04903683479157   -2.28726528726055   -2.30067089021449
|  7> C         3.94232826635219   -3.30576336524257   -2.59744366058609
|  8> C         4.86053985579340   -3.74849012963095   -1.66686173986854
|  9> C         4.90867934205586   -3.14861424001835   -0.40505706005332
| 10> C         4.02116527824321   -2.11747041253913   -0.11102120387458
| 11> H         4.04978515268376   -1.64979962710569    0.86055169468442
| 12> H         2.33971106200730   -1.97485064645362   -3.04954899234083
| 13> H         3.91160524282617   -3.76048270703082   -3.57589421919272
| 14> H         5.54994762660378   -4.53334117668894   -1.92833682805349
| 15> C         5.86595767728344   -3.54955535101117    0.64308212115278
| 16> O         2.26078003819111   -0.68270713539346   -0.63931050750773
| 17> C         1.29107627572487   -0.18684846260766   -1.54253953451290
| 18> H         1.76073801415025    0.24362928736040   -2.43142922816736
| 19> H         0.76223027934930    0.59223534296511   -0.99715977536255
| 20> H         0.58597379733724   -0.96884067098813   -1.83736681904132
| 21> C         6.62778198781331   -4.79973752571147    0.52170795869563
| 22> O         6.13096792127484   -2.77538912373247    1.57301201608193
| 23> C         8.06536865593280   -4.33561007636164   -0.04051218554715
| 24> O         8.62350888158575   -3.37746623472657    0.70378479686435
| 25> Li        7.90598907442785   -2.45071982936320    1.89308809701145
| 26> C         8.87094236640319   -5.62264699261726   -0.10722702812243
| 27> C         8.89365416560524   -6.38845365767214   -1.26611470426514
| 28> C         9.59519251999698   -6.04994998598893    0.99756656388247
| 29> C        10.33511616373799   -7.21534736489831    0.94887398815603
| 30> C        10.37691284463329   -7.96622514411109   -0.22296143657036
| 31> C         9.64196802887707   -7.54931207513094   -1.32968805423135
| 32> C        11.14049411014999   -9.24754964539094   -0.23444142203944
| 33> O        12.12441064861931   -9.41793942981380   -1.12166520041830
| 34> O        10.90008994338022  -10.14427018020447    0.54264939859515
| 35> C        12.55741380418116   -8.36983801291129   -1.98343062797573
| 36> H        12.03675519139985   -8.43754149387219   -2.93942731713745
| 37> H        13.62255269489810   -8.53661926673687   -2.13706409351087
| 38> H        12.38916944740797   -7.38869746160733   -1.53870399136575
| 39> H         9.63922222154902   -8.14190189112540   -2.23228180253593
| 40> H         8.32891783468878   -6.07001491573996   -2.13013559366394
| 41> H        10.89152967054269   -7.55043540642417    1.81146201123341
| 42> H         9.57570146762554   -5.44602166424618    1.89252514632248
| 43> H         6.19543727783055   -5.54465604307062   -0.13713922797854
| 44> H         6.83290858810607   -5.21355317399261    1.50835534519055
| 45> H         7.88617248348775   -3.98367250502511   -1.08015563121185
| 46> *
| 47>
| 48>                          ****END OF INPUT****
 Total Charge           Charge          ....    0
 Multiplicity           Mult            ....    1
 Number of Electrons    NEL             ....  168
Dispersion correction           -0.065981960
FINAL SINGLE POINT ENERGY     -1080.507634175746
Dispersion correction            ... done
Dispersion correction           -0.065475658
FINAL SINGLE POINT ENERGY     -1080.512370865975
Dispersion correction            ... done
Dispersion correction           -0.065303770
FINAL SINGLE POINT ENERGY     -1080.513792935567
Dispersion correction            ... done
FINAL SINGLE POINT ENERGY     -1080.514409142016
FINAL SINGLE POINT ENERGY     -1080.515002553488
FINAL SINGLE POINT ENERGY     -1080.515394911593
FINAL SINGLE POINT ENERGY     -1080.515710588624
FINAL SINGLE POINT ENERGY     -1080.515825906187
FINAL SINGLE POINT ENERGY     -1080.515918738595
FINAL SINGLE POINT ENERGY     -1080.515940479965
FINAL SINGLE POINT ENERGY     -1080.515953669083
FINAL SINGLE POINT ENERGY     -1080.515962172684
FINAL SINGLE POINT ENERGY     -1080.515966930756
Dispersion correction            ... done
Dispersion correction           -0.065232293
FINAL SINGLE POINT ENERGY     -1080.515971237951
Dispersion correction            ... done
Dispersion correction           -0.065227092
FINAL SINGLE POINT ENERGY     -1080.515973536960
Dispersion correction            ... done
                    ***********************HURRAY********************

CARTESIAN COORDINATES (ANGSTROEM)
---------------------------------
  C      3.129265   -1.717069   -1.179003
  C      3.113680   -2.430096   -2.387605
  C      3.969883   -3.522235   -2.551758
  C      4.830495   -3.919660   -1.534847
  C      4.851785   -3.200795   -0.324138
  C      4.000217   -2.101500   -0.157095
  H      4.017135   -1.544492    0.773716
  H      2.447072   -2.145637   -3.193655
  H      3.955069   -4.067280   -3.491036
  H      5.484762   -4.769505   -1.687904
  C      5.769692   -3.551848    0.786781
  O      2.334771   -0.638053   -0.913982
  C      1.434468   -0.208531   -1.952137
  H      1.990448    0.083677   -2.849871
  H      0.910574    0.653302   -1.539561
  H      0.719264   -1.001684   -2.196693
  C      6.670358   -4.731760    0.703530
  O      5.850663   -2.793216    1.781715
  C      8.181061   -4.224746    0.417619
  O      8.652366   -3.441631    1.421835
  Li     7.572922   -2.708450    2.588075
  C      8.981502   -5.506066    0.180985
  C      8.895066   -6.189239   -1.038496
  C      9.803096   -6.022235    1.187333
  C     10.507416   -7.206712    0.989722
  C     10.436797   -7.875474   -0.240482
  C      9.622872   -7.354138   -1.258333
  C     11.159246   -9.169915   -0.384045
  O     11.837623   -9.443309   -1.528528
  O     11.154870  -10.025019    0.488598
  C     12.205442   -8.396014   -2.469022
  H     11.484421   -8.370303   -3.288506
  H     13.189428   -8.680418   -2.843792
  H     12.253461   -7.426471   -1.971261
  H      9.539186   -7.870927   -2.209278
  H      8.254923   -5.799925   -1.827757
  H     11.129405   -7.616829    1.780234
  H      9.878046   -5.476225    2.122821
  H      6.365142   -5.450463   -0.056399
  H      6.713462   -5.227944    1.678216
  H      8.133169   -3.697098   -0.558510

 Multiplicity           Mult            ....    1
 Number of Electrons    NEL             ....  168
 Basis Dimension        Dim             ....  829

ORBITAL ENERGIES
----------------

  NO   OCC          E(Eh)            E(eV)
   0   2.0000     -18.926466      -515.0153
   1   2.0000     -18.921299      -514.8747
   2   2.0000     -18.885930      -513.9123
   3   2.0000     -18.869626      -513.4686
   4   2.0000     -18.800462      -511.5866
   5   2.0000     -10.111908      -275.1590
   6   2.0000     -10.080530      -274.3052
   7   2.0000     -10.056547      -273.6525
   8   2.0000     -10.039623      -273.1920
   9   2.0000     -10.038672      -273.1662
  10   2.0000     -10.033582      -273.0277
  11   2.0000     -10.008992      -272.3585
  12   2.0000     -10.004974      -272.2492
  13   2.0000     -10.001832      -272.1637
  14   2.0000     -10.000709      -272.1331
  15   2.0000      -9.998736      -272.0794
  16   2.0000      -9.998350      -272.0689
  17   2.0000      -9.997843      -272.0551
  18   2.0000      -9.996081      -272.0072
  19   2.0000      -9.993337      -271.9325
  20   2.0000      -9.990897      -271.8661
  21   2.0000      -9.988644      -271.8048
  22   2.0000      -9.985821      -271.7280
  23   2.0000      -1.859376       -50.5962
  24   2.0000      -1.024708       -27.8837
  25   2.0000      -1.000408       -27.2225
  26   2.0000      -0.977147       -26.5895
  27   2.0000      -0.945979       -25.7414
  28   2.0000      -0.875235       -23.8164
  29   2.0000      -0.806116       -21.9355
  30   2.0000      -0.800962       -21.7953
  31   2.0000      -0.727213       -19.7885
  32   2.0000      -0.714138       -19.4327
  33   2.0000      -0.709944       -19.3186
  34   2.0000      -0.694945       -18.9104
  35   2.0000      -0.683524       -18.5996
  36   2.0000      -0.668760       -18.1979
  37   2.0000      -0.648535       -17.6475
  38   2.0000      -0.609079       -16.5739
  39   2.0000      -0.583896       -15.8886
  40   2.0000      -0.564792       -15.3688
  41   2.0000      -0.561185       -15.2706
  42   2.0000      -0.533494       -14.5171
  43   2.0000      -0.517012       -14.0686
  44   2.0000      -0.510693       -13.8967
  45   2.0000      -0.487132       -13.2555
  46   2.0000      -0.479854       -13.0575
  47   2.0000      -0.451666       -12.2905
  48   2.0000      -0.449402       -12.2289
  49   2.0000      -0.436900       -11.8886
  50   2.0000      -0.435831       -11.8596
  51   2.0000      -0.430753       -11.7214
  52   2.0000      -0.426918       -11.6170
  53   2.0000      -0.426201       -11.5975
  54   2.0000      -0.409719       -11.1490
  55   2.0000      -0.403483       -10.9793
  56   2.0000      -0.400139       -10.8883
  57   2.0000      -0.395375       -10.7587
  58   2.0000      -0.390737       -10.6325
  59   2.0000      -0.382868       -10.4184
  60   2.0000      -0.377958       -10.2848
  61   2.0000      -0.372912       -10.1474
  62   2.0000      -0.371113       -10.0985
  63   2.0000      -0.360731        -9.8160
  64   2.0000      -0.353871        -9.6293
  65   2.0000      -0.340887        -9.2760
  66   2.0000      -0.337904        -9.1948
  67   2.0000      -0.334667        -9.1067
  68   2.0000      -0.329157        -8.9568
  69   2.0000      -0.322548        -8.7770
  70   2.0000      -0.318380        -8.6636
  71   2.0000      -0.305673        -8.3178
  72   2.0000      -0.297942        -8.1074
  73   2.0000      -0.297429        -8.0935
  74   2.0000      -0.295382        -8.0377
  75   2.0000      -0.262884        -7.1534
  76   2.0000      -0.250244        -6.8095
  77   2.0000      -0.246194        -6.6993
  78   2.0000      -0.239948        -6.5293
  79   2.0000      -0.235200        -6.4001
  80   2.0000      -0.223129        -6.0717
  81   2.0000      -0.210385        -5.7249
  82   2.0000      -0.189088        -5.1454
  83   2.0000      -0.181224        -4.9314
  84   0.0000      -0.103030        -2.8036
  85   0.0000      -0.067708        -1.8424
  86   0.0000      -0.040403        -1.0994
  87   0.0000      -0.038801        -1.0558
  88   0.0000      -0.009065        -0.2467

MULLIKEN ATOMIC CHARGES
-----------------------
   0 C :    0.346532
   1 C :   -0.241018
   2 C :   -0.153930
   3 C :   -0.202037
   4 C :    0.137720
   5 C :   -0.315485
   6 H :    0.113716
   7 H :    0.147659
   8 H :    0.134965
   9 H :    0.129178
  10 C :    0.429733
  11 O :   -0.250495
  12 C :   -0.231829
  13 H :    0.144974
  14 H :    0.156238
  15 H :    0.144958
  16 C :   -0.373245
  17 O :   -0.555100
  18 C :    0.247208
  19 O :   -0.844375
  20 Li:    0.777767
  21 C :    0.207339
  22 C :   -0.209223
  23 C :   -0.227288
  24 C :   -0.194612
  25 C :    0.055807
  26 C :   -0.160669
  27 C :    0.274820
  28 O :   -0.203633
  29 O :   -0.357924
  30 C :   -0.236809
  31 H :    0.146133
  32 H :    0.156603
  33 H :    0.164518
  34 H :    0.135785
  35 H :    0.121613
  36 H :    0.125858
  37 H :    0.116430
  38 H :    0.138242
  39 H :    0.151884
  40 H :    0.051991
Sum of atomic charges:   -0.0000000

LOEWDIN ATOMIC CHARGES
----------------------
   0 C :   -0.251281
   1 C :   -0.114675
   2 C :   -0.131791
   3 C :   -0.104882
   4 C :   -0.121376
   5 C :   -0.057995
   6 H :    0.157607
   7 H :    0.156173
   8 H :    0.152062
   9 H :    0.151762
  10 C :   -0.247741
  11 O :    0.227120
  12 C :   -0.304536
  13 H :    0.113645
  14 H :    0.118300
  15 H :    0.113552
  16 C :   -0.181369
  17 O :    0.058825
  18 C :   -0.371365
  19 O :   -0.241147
  20 Li:    0.558606
  21 C :   -0.111110
  22 C :   -0.108506
  23 C :   -0.103067
  24 C :   -0.091167
  25 C :   -0.144874
  26 C :   -0.101270
  27 C :   -0.445540
  28 O :    0.236352
  29 O :    0.068374
  30 C :   -0.287213
  31 H :    0.112708
  32 H :    0.117436
  33 H :    0.120615
  34 H :    0.154869
  35 H :    0.152343
  36 H :    0.154022
  37 H :    0.151772
  38 H :    0.145572
  39 H :    0.161445
  40 H :    0.137747

  Mayer bond orders larger than 0.100000
B(  0-C ,  1-C ) :   1.2622 B(  0-C ,  5-C ) :   1.3282 B(  0-C , 11-O ) :   1.1567
B(  1-C ,  2-C ) :   1.3615 B(  1-C ,  7-H ) :   0.9565 B(  2-C ,  3-C ) :   1.4508
B(  2-C ,  8-H ) :   0.9679 B(  3-C ,  4-C ) :   1.2737 B(  3-C ,  9-H ) :   0.9654
B(  4-C ,  5-C ) :   1.3334 B(  4-C , 10-C ) :   1.0671 B(  5-C ,  6-H ) :   1.0124
B( 10-C , 16-C ) :   1.0607 B( 10-C , 17-O ) :   1.5666 B( 11-O , 12-C ) :   0.9347
B( 12-C , 13-H ) :   0.9570 B( 12-C , 14-H ) :   0.9620 B( 12-C , 15-H ) :   0.9569
B( 16-C , 18-C ) :   0.8705 B( 16-C , 38-H ) :   0.9158 B( 16-C , 39-H ) :   0.9413
B( 17-O , 20-Li) :   0.1357 B( 18-C , 19-O ) :   1.1476 B( 18-C , 21-C ) :   0.8923
B( 18-C , 40-H ) :   0.9329 B( 19-O , 20-Li) :   0.2687 B( 19-O , 21-C ) :  -0.1140
B( 21-C , 22-C ) :   1.3360 B( 21-C , 23-C ) :   1.3368 B( 22-C , 26-C ) :   1.4217
B( 22-C , 35-H ) :   0.9789 B( 23-C , 24-C ) :   1.4074 B( 23-C , 37-H ) :   0.9792
B( 24-C , 25-C ) :   1.3244 B( 24-C , 36-H ) :   0.9948 B( 25-C , 26-C ) :   1.2939
B( 25-C , 27-C ) :   0.9223 B( 26-C , 34-H ) :   0.9778 B( 27-C , 28-O ) :   1.2505
B( 27-C , 29-O ) :   2.0506 B( 28-O , 30-C ) :   0.9031 B( 30-C , 31-H ) :   0.9603
B( 30-C , 32-H ) :   0.9585 B( 30-C , 33-H ) :   0.9573

Dispersion correction           -0.065223239
FINAL SINGLE POINT ENERGY     -1080.515974677908

DIPOLE MOMENT
-------------
                                X             Y             Z
Electronic contribution:      4.66500       0.35778      15.07948
Nuclear contribution   :     -7.42027       2.57200     -16.71689
                        -----------------------------------------
Total Dipole Moment    :     -2.75527       2.92978      -1.63741
                        -----------------------------------------
Magnitude (a.u.)       :      4.34238
Magnitude (Debye)      :     11.03745

VIBRATIONAL FREQUENCIES
-----------------------

Scaling factor for frequencies =  1.000000000 (already applied!)

   0:         0.00 cm**-1
   1:         0.00 cm**-1
   2:         0.00 cm**-1
   3:         0.00 cm**-1
   4:         0.00 cm**-1
   5:         0.00 cm**-1
   6:         9.11 cm**-1
   7:        17.08 cm**-1
   8:        23.35 cm**-1
   9:        40.26 cm**-1
  10:        49.06 cm**-1
  11:        58.88 cm**-1
  12:        88.75 cm**-1
  13:       101.25 cm**-1
  14:       106.69 cm**-1
  15:       126.34 cm**-1
  16:       143.66 cm**-1
  17:       163.93 cm**-1
  18:       168.60 cm**-1
  19:       193.05 cm**-1
  20:       199.25 cm**-1
  21:       205.76 cm**-1
  22:       234.90 cm**-1
  23:       251.39 cm**-1
  24:       261.07 cm**-1
  25:       271.92 cm**-1
  26:       277.47 cm**-1
  27:       317.80 cm**-1
  28:       363.65 cm**-1
  29:       388.64 cm**-1
  30:       402.14 cm**-1
  31:       406.61 cm**-1
  32:       431.22 cm**-1
  33:       462.12 cm**-1
  34:       482.37 cm**-1
  35:       500.61 cm**-1
  36:       526.77 cm**-1
  37:       541.81 cm**-1
  38:       557.25 cm**-1
  39:       565.48 cm**-1
  40:       595.43 cm**-1
  41:       619.12 cm**-1
  42:       628.96 cm**-1
  43:       637.45 cm**-1
  44:       670.09 cm**-1
  45:       682.29 cm**-1
  46:       700.45 cm**-1
  47:       711.40 cm**-1
  48:       724.99 cm**-1
  49:       759.37 cm**-1
  50:       774.41 cm**-1
  51:       802.20 cm**-1
  52:       836.76 cm**-1
  53:       845.47 cm**-1
  54:       851.01 cm**-1
  55:       880.66 cm**-1
  56:       885.80 cm**-1
  57:       910.25 cm**-1
  58:       945.32 cm**-1
  59:       963.50 cm**-1
  60:       966.97 cm**-1
  61:       971.28 cm**-1
  62:       981.18 cm**-1
  63:       992.67 cm**-1
  64:      1016.35 cm**-1
  65:      1019.84 cm**-1
  66:      1055.59 cm**-1
  67:      1066.01 cm**-1
  68:      1089.31 cm**-1
  69:      1101.48 cm**-1
  70:      1115.59 cm**-1
  71:      1149.68 cm**-1
  72:      1151.62 cm**-1
  73:      1151.92 cm**-1
  74:      1163.85 cm**-1
  75:      1178.69 cm**-1
  76:      1183.35 cm**-1
  77:      1184.93 cm**-1
  78:      1185.45 cm**-1
  79:      1207.09 cm**-1
  80:      1238.46 cm**-1
  81:      1248.37 cm**-1
  82:      1255.03 cm**-1
  83:      1291.60 cm**-1
  84:      1295.55 cm**-1
  85:      1308.65 cm**-1
  86:      1323.32 cm**-1
  87:      1359.42 cm**-1
  88:      1363.01 cm**-1
  89:      1410.56 cm**-1
  90:      1435.70 cm**-1
  91:      1456.42 cm**-1
  92:      1457.09 cm**-1
  93:      1472.84 cm**-1
  94:      1473.51 cm**-1
  95:      1476.98 cm**-1
  96:      1486.69 cm**-1
  97:      1492.76 cm**-1
  98:      1497.89 cm**-1
  99:      1508.06 cm**-1
 100:      1552.56 cm**-1
 101:      1572.70 cm**-1
 102:      1584.00 cm**-1
 103:      1605.80 cm**-1
 104:      1609.53 cm**-1
 105:      1676.70 cm**-1
 106:      2817.44 cm**-1
 107:      2990.00 cm**-1
 108:      3023.11 cm**-1
 109:      3030.13 cm**-1
 110:      3054.64 cm**-1
 111:      3105.73 cm**-1
 112:      3110.70 cm**-1
 113:      3117.04 cm**-1
 114:      3117.27 cm**-1
 115:      3118.66 cm**-1
 116:      3141.66 cm**-1
 117:      3144.55 cm**-1
 118:      3155.24 cm**-1
 119:      3156.09 cm**-1
 120:      3166.44 cm**-1
 121:      3173.20 cm**-1
 122:      3181.22 cm**-1

IR SPECTRUM
-----------

 Mode   freq       eps      Int      T**2         TX        TY        TZ
       cm**-1   L/(mol*cm) km/mol    a.u.
----------------------------------------------------------------------------
  6:      9.11   0.000555    2.80  0.019015  (-0.117575 -0.031954 -0.064576)
  7:     17.08   0.000217    1.10  0.003963  (-0.032920 -0.037705 -0.038182)
  8:     23.35   0.000105    0.53  0.001399  ( 0.027935 -0.001255  0.024835)
  9:     40.26   0.000948    4.79  0.007350  ( 0.029895 -0.078300 -0.018031)
 10:     49.06   0.001505    7.61  0.009574  (-0.096429 -0.015076 -0.006910)
 11:     58.88   0.000490    2.47  0.002594  ( 0.040200 -0.016707  0.026444)
 12:     88.75   0.002410   12.18  0.008473  ( 0.034877  0.075749 -0.038977)
 13:    101.25   0.000606    3.06  0.001866  (-0.018814  0.030900  0.023613)
 14:    106.69   0.007778   39.31  0.022750  (-0.032394 -0.140553  0.044110)
 15:    126.34   0.001538    7.77  0.003799  (-0.016749  0.014353 -0.057557)
 16:    143.66   0.000391    1.98  0.000849  ( 0.002551  0.018407  0.022449)
 17:    163.93   0.010626   53.70  0.020229  ( 0.016519 -0.113404  0.084232)
 18:    168.60   0.001824    9.22  0.003376  (-0.043339  0.028315 -0.026388)
 19:    193.05   0.001361    6.88  0.002200  ( 0.014188  0.044611  0.002975)
 20:    199.25   0.001352    6.83  0.002118  (-0.017326 -0.041840 -0.008206)
 21:    205.76   0.000132    0.67  0.000200  (-0.007477 -0.001862  0.011855)
 22:    234.90   0.002416   12.21  0.003209  (-0.042672  0.033856 -0.015563)
 23:    251.39   0.002451   12.39  0.003043  (-0.010933  0.029428 -0.045361)
 24:    261.07   0.000297    1.50  0.000355  (-0.013203 -0.012866  0.003927)
 25:    271.92   0.000421    2.13  0.000483  ( 0.005239 -0.020855  0.004586)
 26:    277.47   0.004638   23.44  0.005216  (-0.032173 -0.042028 -0.049135)
 27:    317.80   0.000724    3.66  0.000711  (-0.012422 -0.001719 -0.023535)
 28:    363.65   0.007198   36.38  0.006177  ( 0.042921  0.011945  0.064746)
 29:    388.64   0.004893   24.73  0.003929  ( 0.053225  0.025169  0.021515)
 30:    402.14   0.000708    3.58  0.000549  (-0.009274 -0.009180 -0.019470)
 31:    406.61   0.005355   27.06  0.004110  (-0.055735  0.026461 -0.017415)
 32:    431.22   0.002666   13.47  0.001929  (-0.042467  0.001378 -0.011127)
 33:    462.12   0.004868   24.60  0.003287  ( 0.040823  0.032838  0.023284)
 34:    482.37   0.002696   13.62  0.001744  (-0.031272  0.017240 -0.021658)
 35:    500.61   0.003785   19.13  0.002359  ( 0.013496 -0.031022  0.034854)
 36:    526.77   0.006303   31.85  0.003734  ( 0.022901  0.034240  0.045136)
 37:    541.81   0.003598   18.18  0.002072  ( 0.033854 -0.010651  0.028508)
 38:    557.25   0.002279   11.52  0.001276  ( 0.009640 -0.022440 -0.026076)
 39:    565.48   0.001715    8.67  0.000947  (-0.016928 -0.022477  0.012441)
 40:    595.43   0.007424   37.52  0.003891  (-0.007208 -0.000907  0.061952)
 41:    619.12   0.008609   43.51  0.004339  ( 0.063575 -0.016565  0.004795)
 42:    628.96   0.007390   37.34  0.003666  ( 0.047435 -0.025933 -0.027275)
 43:    637.45   0.027106  136.98  0.013270  ( 0.095379  0.013480  0.063174)
 44:    670.09   0.019132   96.69  0.008910  (-0.078858  0.021605  0.047167)
 45:    682.29   0.006594   33.33  0.003016  (-0.025450  0.048619 -0.002146)
 46:    700.45   0.003665   18.52  0.001633  ( 0.012696 -0.038363  0.000036)
 47:    711.40   0.016583   83.81  0.007275  ( 0.084719 -0.009632 -0.002129)
 48:    724.99   0.012252   61.92  0.005274  ( 0.071445 -0.010536 -0.007655)
 49:    759.37   0.019616   99.13  0.008061  (-0.082527 -0.026337  0.023592)
 50:    774.41   0.012369   62.51  0.004984  (-0.066537 -0.010573  0.021100)
 51:    802.20   0.011246   56.83  0.004375  ( 0.052991 -0.039307 -0.004642)
 52:    836.76   0.001159    5.86  0.000432  (-0.019520  0.001976  0.006877)
 53:    845.47   0.002856   14.43  0.001054  (-0.011534 -0.024973  0.017250)
 54:    851.01   0.009069   45.83  0.003326  ( 0.005896 -0.054168  0.018886)
 55:    880.66   0.002361   11.93  0.000837  (-0.015641  0.012002  0.021165)
 56:    885.80   0.002488   12.57  0.000876  ( 0.023594  0.017860 -0.000909)
 57:    910.25   0.004706   23.78  0.001613  (-0.037213 -0.009299  0.011914)
 58:    945.32   0.045100  227.92  0.014888  (-0.106747  0.002531 -0.059051)
 59:    963.50   0.000034    0.17  0.000011  ( 0.000006  0.003001  0.001375)
 60:    966.97   0.003565   18.01  0.001150  ( 0.029079 -0.012387  0.012302)
 61:    971.28   0.003234   16.34  0.001039  ( 0.026242 -0.018520 -0.002745)
 62:    981.18   0.018706   94.53  0.005949  (-0.027331  0.070930  0.013094)
 63:    992.67   0.000524    2.65  0.000165  (-0.006754  0.001240 -0.010843)
 64:   1016.35   0.002922   14.77  0.000897  (-0.020924  0.008275  0.019771)
 65:   1019.84   0.036833  186.14  0.011271  ( 0.073214 -0.060658  0.047233)
 66:   1055.59   0.002254   11.39  0.000666  ( 0.006237 -0.019466 -0.015768)
 67:   1066.01   0.062256  314.62  0.018225  ( 0.065355  0.000698 -0.118123)
 68:   1089.31   0.025675  129.75  0.007355  (-0.076097 -0.016387 -0.036001)
 69:   1101.48   0.000496    2.51  0.000140  (-0.007426  0.002809  0.008800)
 70:   1115.59   0.003662   18.50  0.001024  ( 0.031857  0.001594  0.002627)
 71:   1149.68   0.009777   49.41  0.002654  ( 0.017310 -0.036858 -0.031556)
 72:   1151.62   0.003488   17.63  0.000945  ( 0.003140 -0.013340 -0.027519)
 73:   1151.92   0.000976    4.93  0.000264  (-0.003085 -0.012583 -0.009828)
 74:   1163.85   0.021568  108.99  0.005783  (-0.060424 -0.011806 -0.044638)
 75:   1178.69   0.002934   14.83  0.000777  ( 0.023945 -0.014130  0.001975)
 76:   1183.35   0.003075   15.54  0.000811  ( 0.000394  0.028382 -0.002314)
 77:   1184.93   0.010260   51.85  0.002702  ( 0.046806 -0.019842  0.010841)
 78:   1185.45   0.001447    7.31  0.000381  ( 0.012388  0.002305 -0.014904)
 79:   1207.09   0.020441  103.30  0.005285  ( 0.006474  0.047224  0.054886)
 80:   1238.46   0.017885   90.38  0.004507  ( 0.029491 -0.016468  0.058014)
 81:   1248.37   0.130979  661.91  0.032742  ( 0.136756 -0.101915 -0.060437)
 82:   1255.03   0.040585  205.10  0.010092  ( 0.041393 -0.017402 -0.089863)
 83:   1291.60   0.085346  431.30  0.020620  ( 0.105997 -0.088476  0.039459)
 84:   1295.55   0.004260   21.53  0.001026  ( 0.022119 -0.015850  0.016902)
 85:   1308.65   0.030580  154.54  0.007292  (-0.055087  0.061448 -0.021949)
 86:   1323.32   0.006203   31.35  0.001463  ( 0.017146 -0.033880  0.004565)
 87:   1359.42   0.009834   49.70  0.002257  (-0.026437  0.003137 -0.039353)
 88:   1363.01   0.009540   48.21  0.002184  (-0.020403  0.040158  0.012463)
 89:   1410.56   0.005869   29.66  0.001299  ( 0.004653  0.016361  0.031768)
 90:   1435.70   0.020596  104.08  0.004477  (-0.050445  0.035363 -0.026102)
 91:   1456.42   0.002374   12.00  0.000509  (-0.001374  0.018634  0.012630)
 92:   1457.09   0.004540   22.94  0.000972  ( 0.021362 -0.019885 -0.010980)
 93:   1472.84   0.007090   35.83  0.001502  ( 0.036700 -0.012288 -0.002089)
 94:   1473.51   0.019627   99.18  0.004157  ( 0.036631 -0.043967  0.029692)
 95:   1476.98   0.002198   11.11  0.000464  ( 0.011921  0.013923 -0.011337)
 96:   1486.69   0.003277   16.56  0.000688  ( 0.012057 -0.021662 -0.008564)
 97:   1492.76   0.004329   21.87  0.000905  ( 0.008956 -0.016577 -0.023450)
 98:   1497.89   0.002961   14.97  0.000617  (-0.016825  0.016346  0.008166)
 99:   1508.06   0.001231    6.22  0.000255  ( 0.005744 -0.008454  0.012254)
100:   1552.56   0.119642  604.62  0.024048  ( 0.039318 -0.101779 -0.110195)
101:   1572.70   0.000485    2.45  0.000096  (-0.002364  0.003208 -0.008961)
102:   1584.00   0.009781   49.43  0.001927  ( 0.029098 -0.021854  0.024550)
103:   1605.80   0.018436   93.17  0.003583  ( 0.037078 -0.046988 -0.000341)
104:   1609.53   0.006439   32.54  0.001248  (-0.023310  0.014293 -0.022378)
105:   1676.70   0.131753  665.82  0.024521  (-0.017639  0.124370 -0.093501)
106:   2817.44   0.027007  136.48  0.002991  (-0.005875 -0.015888  0.052004)
107:   2990.00   0.012740   64.39  0.001330  ( 0.023742 -0.012722  0.024580)
108:   3023.11   0.007082   35.79  0.000731  ( 0.009151  0.012188 -0.022332)
109:   3030.13   0.003104   15.69  0.000320  ( 0.002658 -0.010840  0.013967)
110:   3054.64   0.009071   45.84  0.000927  ( 0.021692  0.018454 -0.010753)
111:   3105.73   0.005663   28.62  0.000569  (-0.022107  0.001208 -0.008879)
112:   3110.70   0.002920   14.76  0.000293  (-0.003414 -0.010874 -0.012769)
113:   3117.04   0.003272   16.54  0.000328  ( 0.011544 -0.010422  0.009259)
114:   3117.27   0.005056   25.55  0.000506  (-0.010733  0.017494  0.009216)
115:   3118.66   0.004568   23.08  0.000457  (-0.007641  0.013487  0.014724)
116:   3141.66   0.000352    1.78  0.000035  (-0.004173  0.003606 -0.002132)
117:   3144.55   0.001988   10.05  0.000197  ( 0.000836  0.007196  0.012034)
118:   3155.24   0.003978   20.10  0.000393  (-0.002893 -0.007010 -0.018328)
119:   3156.09   0.003117   15.75  0.000308  ( 0.010555 -0.004352  0.013337)
120:   3166.44   0.001546    7.81  0.000152  ( 0.009139 -0.007848  0.002685)
121:   3173.20   0.001005    5.08  0.000099  (-0.007345  0.005108 -0.004337)
122:   3181.22   0.001414    7.15  0.000139  ( 0.001918 -0.009206 -0.007091)

--------------------------
THERMOCHEMISTRY AT 298.15K
--------------------------

Temperature         ... 298.15 K
Pressure            ... 1.00 atm
Total Mass          ... 320.27 AMU

Throughout the following assumptions are being made:
  (1) The electronic state is orbitally nondegenerate
  (2) There are no thermally accessible electronically excited states
  (3) Hindered rotations indicated by low frequency modes are not
      treated as such but are treated as vibrations and this may
      cause some error
  (4) All equations used are the standard statistical mechanics
      equations for an ideal gas
  (5) All vibrations are strictly harmonic

freq.       9.11  E(vib)   ...       0.58
freq.      17.08  E(vib)   ...       0.57
freq.      23.35  E(vib)   ...       0.56
freq.      40.26  E(vib)   ...       0.54
freq.      49.06  E(vib)   ...       0.53
freq.      58.88  E(vib)   ...       0.51
freq.      88.75  E(vib)   ...       0.47
freq.     101.25  E(vib)   ...       0.46
freq.     106.69  E(vib)   ...       0.45
freq.     126.34  E(vib)   ...       0.43
freq.     143.66  E(vib)   ...       0.41
freq.     163.93  E(vib)   ...       0.39
freq.     168.60  E(vib)   ...       0.38
freq.     193.05  E(vib)   ...       0.36
freq.     199.25  E(vib)   ...       0.35
freq.     205.76  E(vib)   ...       0.35
freq.     234.90  E(vib)   ...       0.32
freq.     251.39  E(vib)   ...       0.30
freq.     261.07  E(vib)   ...       0.30
freq.     271.92  E(vib)   ...       0.29
freq.     277.47  E(vib)   ...       0.28
freq.     317.80  E(vib)   ...       0.25
freq.     363.65  E(vib)   ...       0.22
freq.     388.64  E(vib)   ...       0.20
freq.     402.14  E(vib)   ...       0.19
freq.     406.61  E(vib)   ...       0.19
freq.     431.22  E(vib)   ...       0.18
freq.     462.12  E(vib)   ...       0.16
freq.     482.37  E(vib)   ...       0.15
freq.     500.61  E(vib)   ...       0.14
freq.     526.77  E(vib)   ...       0.13
freq.     541.81  E(vib)   ...       0.12
freq.     557.25  E(vib)   ...       0.12
freq.     565.48  E(vib)   ...       0.11
freq.     595.43  E(vib)   ...       0.10
freq.     619.12  E(vib)   ...       0.09
freq.     628.96  E(vib)   ...       0.09
freq.     637.45  E(vib)   ...       0.09
freq.     670.09  E(vib)   ...       0.08
freq.     682.29  E(vib)   ...       0.08
freq.     700.45  E(vib)   ...       0.07
freq.     711.40  E(vib)   ...       0.07
freq.     724.99  E(vib)   ...       0.06
freq.     759.37  E(vib)   ...       0.06
freq.     774.41  E(vib)   ...       0.05
freq.     802.20  E(vib)   ...       0.05
freq.     836.76  E(vib)   ...       0.04
freq.     845.47  E(vib)   ...       0.04
freq.     851.01  E(vib)   ...       0.04
freq.     880.66  E(vib)   ...       0.04
freq.     885.80  E(vib)   ...       0.04
freq.     910.25  E(vib)   ...       0.03
freq.     945.32  E(vib)   ...       0.03
freq.     963.50  E(vib)   ...       0.03
freq.     966.97  E(vib)   ...       0.03
freq.     971.28  E(vib)   ...       0.03
freq.     981.18  E(vib)   ...       0.02
freq.     992.67  E(vib)   ...       0.02
freq.    1016.35  E(vib)   ...       0.02
freq.    1019.84  E(vib)   ...       0.02
freq.    1055.59  E(vib)   ...       0.02
freq.    1066.01  E(vib)   ...       0.02
freq.    1089.31  E(vib)   ...       0.02
freq.    1101.48  E(vib)   ...       0.02
freq.    1115.59  E(vib)   ...       0.01
freq.    1149.68  E(vib)   ...       0.01
freq.    1151.62  E(vib)   ...       0.01
freq.    1151.92  E(vib)   ...       0.01
freq.    1163.85  E(vib)   ...       0.01
freq.    1178.69  E(vib)   ...       0.01
freq.    1183.35  E(vib)   ...       0.01
freq.    1184.93  E(vib)   ...       0.01
freq.    1185.45  E(vib)   ...       0.01
freq.    1207.09  E(vib)   ...       0.01
freq.    1238.46  E(vib)   ...       0.01
freq.    1248.37  E(vib)   ...       0.01
freq.    1255.03  E(vib)   ...       0.01
freq.    1291.60  E(vib)   ...       0.01
freq.    1295.55  E(vib)   ...       0.01
freq.    1308.65  E(vib)   ...       0.01
freq.    1323.32  E(vib)   ...       0.01
freq.    1359.42  E(vib)   ...       0.01
freq.    1363.01  E(vib)   ...       0.01
freq.    1410.56  E(vib)   ...       0.00
freq.    1435.70  E(vib)   ...       0.00
freq.    1456.42  E(vib)   ...       0.00
freq.    1457.09  E(vib)   ...       0.00
freq.    1472.84  E(vib)   ...       0.00
freq.    1473.51  E(vib)   ...       0.00
freq.    1476.98  E(vib)   ...       0.00
freq.    1486.69  E(vib)   ...       0.00
freq.    1492.76  E(vib)   ...       0.00
freq.    1497.89  E(vib)   ...       0.00
freq.    1508.06  E(vib)   ...       0.00
freq.    1552.56  E(vib)   ...       0.00
freq.    1572.70  E(vib)   ...       0.00
freq.    1584.00  E(vib)   ...       0.00
freq.    1605.80  E(vib)   ...       0.00
freq.    1609.53  E(vib)   ...       0.00
freq.    1676.70  E(vib)   ...       0.00
freq.    2817.44  E(vib)   ...       0.00
freq.    2990.00  E(vib)   ...       0.00
freq.    3023.11  E(vib)   ...       0.00
freq.    3030.13  E(vib)   ...       0.00
freq.    3054.64  E(vib)   ...       0.00
freq.    3105.73  E(vib)   ...       0.00
freq.    3110.70  E(vib)   ...       0.00
freq.    3117.04  E(vib)   ...       0.00
freq.    3117.27  E(vib)   ...       0.00
freq.    3118.66  E(vib)   ...       0.00
freq.    3141.66  E(vib)   ...       0.00
freq.    3144.55  E(vib)   ...       0.00
freq.    3155.24  E(vib)   ...       0.00
freq.    3156.09  E(vib)   ...       0.00
freq.    3166.44  E(vib)   ...       0.00
freq.    3173.20  E(vib)   ...       0.00
freq.    3181.22  E(vib)   ...       0.00

------------
INNER ENERGY
------------

The inner energy is: U= E(el) + E(ZPE) + E(vib) + E(rot) + E(trans)
    E(el)   - is the total energy from the electronic structure calculation
              = E(kin-el) + E(nuc-el) + E(el-el) + E(nuc-nuc)
    E(ZPE)  - the the zero temperature vibrational energy from the frequency calculation
    E(vib)  - the the finite temperature correction to E(ZPE) due to population
              of excited vibrational states
    E(rot)  - is the rotational thermal energy
    E(trans)- is the translational thermal energy

Summary of contributions to the inner energy U:
Electronic energy                ...  -1080.51597471 Eh
Zero point energy                ...      0.31063339 Eh     194.92 kcal/mol
Thermal vibrational correction   ...      0.02009280 Eh      12.61 kcal/mol
Thermal rotational correction    ...      0.00141627 Eh       0.89 kcal/mol
Thermal translational correction ...      0.00141627 Eh       0.89 kcal/mol
-----------------------------------------------------------------------
Total thermal energy                  -1080.18241599 Eh

Summary of corrections to the electronic energy:
(perhaps to be used in another calculation)
Total thermal correction                  0.02292534 Eh      14.39 kcal/mol

Rotational constants in cm-1:     0.020499     0.002793     0.002554

                             ****ORCA TERMINATED NORMALLY****
TOTAL RUN TIME: 0 days 15 hours 57 minutes 41 seconds 698 msec
