                         Program Version 5.0.2 -  RELEASE  -
|  1> ! PW6B95 D3BJ def2-QZVP RIJK def2/JK tightSCF CPCM(THF)
|  2> ! sp Pal4
|  3>
|  4> * xyz 0 1
|  5> C   3.12926546088082     -1.71706853041474     -1.17900329917865
|  6>   C   3.11367979317611     -2.43009612132795     -2.38760531275860
|  7>   C   3.96988264858153     -3.52223461280417     -2.55175801623749
|  8>   C   4.83049464158970     -3.91966014348605     -1.53484663937308
|  9>   C   4.85178452674346     -3.20079487878844     -0.32413795918178
| 10>   C   4.00021736412788     -2.10150046357587     -0.15709507287045
| 11>   H   4.01713494666655     -1.54449215912897      0.77371639308716
| 12>   H   2.44707242586543     -2.14563716413254     -3.19365501659456
| 13>   H   3.95506907962075     -4.06728040595774     -3.49103572397449
| 14>   H   5.48476174053602     -4.76950544456311     -1.68790354633009
| 15>   C   5.76969208070592     -3.55184820138845      0.78678081243419
| 16>   O   2.33477112014698     -0.63805292748023     -0.91398213420864
| 17>   C   1.43446828293377     -0.20853129988067     -1.95213707020546
| 18>   H   1.99044846402550      0.08367720265159     -2.84987126369524
| 19>   H   0.91057402503305      0.65330150906131     -1.53956098057724
| 20>   H   0.71926421964780     -1.00168433055084     -2.19669259251701
| 21>   C   6.67035816579865     -4.73176024707481      0.70352994753873
| 22>   O   5.85066291870078     -2.79321635478204      1.78171492744812
| 23>   C   8.18106111261305     -4.22474647030526      0.41761914447059
| 24>   O   8.65236601949984     -3.44163055241772      1.42183471461372
| 25>   Li  7.57292153172249     -2.70845031863755      2.58807503816377
| 26>   C   8.98150237467747     -5.50606557627842      0.18098535189537
| 27>   C   8.89506567770288     -6.18923890861860     -1.03849588447505
| 28>   C   9.80309579374050     -6.02223534651537      1.18733345723098
| 29>   C   10.50741647417754     -7.20671169848472      0.98972216364738
| 30>   C   10.43679709743294     -7.87547439343579     -0.24048225478385
| 31>   C   9.62287228527718     -7.35413820523435     -1.25833291010151
| 32>   C   11.15924590236128     -9.16991489526802     -0.38404493325393
| 33>   O   11.83762333609010     -9.44330928380064     -1.52852819949683
| 34>   O   11.15486972022078    -10.02501892526530      0.48859802919551
| 35>   C   12.20544218060004     -8.39601359881328     -2.46902192739469
| 36>   H   11.48442053028688     -8.37030257786323     -3.28850576679978
| 37>   H   13.18942786182155     -8.68041787221541     -2.84379190039059
| 38>   H   12.25346053445675     -7.42647106090101     -1.97126103074082
| 39>   H   9.53918571722684     -7.87092742839576     -2.20927757267524
| 40>   H   8.25492262334425     -5.79992524483210     -1.82775738701802
| 41>   H   11.12940544413752     -7.61682940776498      1.78023419512565
| 42>   H   9.87804594582639     -5.47622534586346      2.12282118440167
| 43>   H   6.36514176794343     -5.45046348173156     -0.05639891020263
| 44>   H   6.71346194178723     -5.22794369625348      1.67821597910151
| 45>   H   8.13316933105585     -3.69709813376802     -0.55850974409486
| 46> *
| 47>
| 48>                          ****END OF INPUT****

CARTESIAN COORDINATES (ANGSTROEM)
---------------------------------
  C      3.129265   -1.717069   -1.179003
  C      3.113680   -2.430096   -2.387605
  C      3.969883   -3.522235   -2.551758
  C      4.830495   -3.919660   -1.534847
  C      4.851785   -3.200795   -0.324138
  C      4.000217   -2.101500   -0.157095
  H      4.017135   -1.544492    0.773716
  H      2.447072   -2.145637   -3.193655
  H      3.955069   -4.067280   -3.491036
  H      5.484762   -4.769505   -1.687904
  C      5.769692   -3.551848    0.786781
  O      2.334771   -0.638053   -0.913982
  C      1.434468   -0.208531   -1.952137
  H      1.990448    0.083677   -2.849871
  H      0.910574    0.653302   -1.539561
  H      0.719264   -1.001684   -2.196693
  C      6.670358   -4.731760    0.703530
  O      5.850663   -2.793216    1.781715
  C      8.181061   -4.224746    0.417619
  O      8.652366   -3.441631    1.421835
  Li     7.572922   -2.708450    2.588075
  C      8.981502   -5.506066    0.180985
  C      8.895066   -6.189239   -1.038496
  C      9.803096   -6.022235    1.187333
  C     10.507416   -7.206712    0.989722
  C     10.436797   -7.875474   -0.240482
  C      9.622872   -7.354138   -1.258333
  C     11.159246   -9.169915   -0.384045
  O     11.837623   -9.443309   -1.528528
  O     11.154870  -10.025019    0.488598
  C     12.205442   -8.396014   -2.469022
  H     11.484421   -8.370303   -3.288506
  H     13.189428   -8.680418   -2.843792
  H     12.253461   -7.426471   -1.971261
  H      9.539186   -7.870927   -2.209278
  H      8.254923   -5.799925   -1.827757
  H     11.129405   -7.616829    1.780234
  H      9.878046   -5.476225    2.122821
  H      6.365142   -5.450463   -0.056399
  H      6.713462   -5.227944    1.678216
  H      8.133169   -3.697098   -0.558510

 Total Charge           Charge          ....    0
 Multiplicity           Mult            ....    1
 Number of Electrons    NEL             ....  168
 Basis Dimension        Dim             .... 1856

ORBITAL ENERGIES
----------------

  NO   OCC          E(Eh)            E(eV)
   0   2.0000     -19.342622      -526.3395
   1   2.0000     -19.334965      -526.1312
   2   2.0000     -19.302452      -525.2464
   3   2.0000     -19.286093      -524.8013
   4   2.0000     -19.207865      -522.6726
   5   2.0000     -10.436791      -283.9995
   6   2.0000     -10.405832      -283.1571
   7   2.0000     -10.374671      -282.3092
   8   2.0000     -10.349678      -281.6291
   9   2.0000     -10.347696      -281.5751
  10   2.0000     -10.347057      -281.5577
  11   2.0000     -10.325827      -280.9800
  12   2.0000     -10.320767      -280.8424
  13   2.0000     -10.316507      -280.7264
  14   2.0000     -10.315163      -280.6899
  15   2.0000     -10.313571      -280.6465
  16   2.0000     -10.313441      -280.6430
  17   2.0000     -10.312937      -280.6293
  18   2.0000     -10.310647      -280.5670
  19   2.0000     -10.309182      -280.5271
  20   2.0000     -10.304302      -280.3943
  21   2.0000     -10.299777      -280.2712
  22   2.0000     -10.299109      -280.2530
  23   2.0000      -1.998038       -54.3694
  24   2.0000      -1.130138       -30.7526
  25   2.0000      -1.100973       -29.9590
  26   2.0000      -1.081920       -29.4405
  27   2.0000      -1.048092       -28.5200
  28   2.0000      -0.970474       -26.4080
  29   2.0000      -0.895542       -24.3689
  30   2.0000      -0.889878       -24.2148
  31   2.0000      -0.811925       -22.0936
  32   2.0000      -0.797970       -21.7139
  33   2.0000      -0.792104       -21.5543
  34   2.0000      -0.776473       -21.1289
  35   2.0000      -0.764547       -20.8044
  36   2.0000      -0.746810       -20.3217
  37   2.0000      -0.724950       -19.7269
  38   2.0000      -0.686107       -18.6699
  39   2.0000      -0.658480       -17.9182
  40   2.0000      -0.636669       -17.3246
  41   2.0000      -0.633893       -17.2491
  42   2.0000      -0.605477       -16.4759
  43   2.0000      -0.586224       -15.9520
  44   2.0000      -0.578836       -15.7509
  45   2.0000      -0.554026       -15.0758
  46   2.0000      -0.547933       -14.9100
  47   2.0000      -0.518729       -14.1153
  48   2.0000      -0.513440       -13.9714
  49   2.0000      -0.504771       -13.7355
  50   2.0000      -0.501003       -13.6330
  51   2.0000      -0.500417       -13.6170
  52   2.0000      -0.493185       -13.4202
  53   2.0000      -0.491709       -13.3801
  54   2.0000      -0.474135       -12.9019
  55   2.0000      -0.467266       -12.7150
  56   2.0000      -0.463107       -12.6018
  57   2.0000      -0.455742       -12.4014
  58   2.0000      -0.453300       -12.3349
  59   2.0000      -0.443391       -12.0653
  60   2.0000      -0.437502       -11.9050
  61   2.0000      -0.434448       -11.8219
  62   2.0000      -0.432068       -11.7572
  63   2.0000      -0.420699       -11.4478
  64   2.0000      -0.410165       -11.1611
  65   2.0000      -0.399218       -10.8633
  66   2.0000      -0.395976       -10.7750
  67   2.0000      -0.392136       -10.6706
  68   2.0000      -0.387523       -10.5450
  69   2.0000      -0.381545       -10.3824
  70   2.0000      -0.374507       -10.1909
  71   2.0000      -0.365195        -9.9374
  72   2.0000      -0.357073        -9.7165
  73   2.0000      -0.355006        -9.6602
  74   2.0000      -0.351581        -9.5670
  75   2.0000      -0.322938        -8.7876
  76   2.0000      -0.311561        -8.4780
  77   2.0000      -0.306761        -8.3474
  78   2.0000      -0.287724        -7.8294
  79   2.0000      -0.276945        -7.5360
  80   2.0000      -0.270069        -7.3489
  81   2.0000      -0.255430        -6.9506
  82   2.0000      -0.244760        -6.6603
  83   2.0000      -0.236632        -6.4391
  84   0.0000      -0.078160        -2.1268
  85   0.0000      -0.040342        -1.0978
  86   0.0000      -0.013338        -0.3629
  87   0.0000      -0.012123        -0.3299
  88   0.0000      -0.004206        -0.1145

MULLIKEN ATOMIC CHARGES
-----------------------
   0 C :    0.111989
   1 C :   -0.079738
   2 C :   -0.193593
   3 C :   -0.133824
   4 C :    0.083928
   5 C :   -0.044082
   6 H :    0.111850
   7 H :    0.123568
   8 H :    0.134499
   9 H :    0.111029
  10 C :    0.268706
  11 O :   -0.368150
  12 C :   -0.081292
  13 H :    0.110164
  14 H :    0.132422
  15 H :    0.110438
  16 C :   -0.155393
  17 O :   -0.359800
  18 C :    0.130071
  19 O :   -0.591357
  20 Li:    0.391313
  21 C :    0.105751
  22 C :   -0.164669
  23 C :   -0.190188
  24 C :   -0.153493
  25 C :   -0.009681
  26 C :   -0.088654
  27 C :    0.357696
  28 O :   -0.316881
  29 O :   -0.411975
  30 C :   -0.076389
  31 H :    0.130294
  32 H :    0.124634
  33 H :    0.109041
  34 H :    0.111007
  35 H :    0.112631
  36 H :    0.124874
  37 H :    0.120826
  38 H :    0.075671
  39 H :    0.136573
  40 H :    0.090185
Sum of atomic charges:    0.0000000

LOEWDIN ATOMIC CHARGES
----------------------
   0 C :   -0.342911
   1 C :    0.082531
   2 C :    0.074155
   3 C :    0.090894
   4 C :   -0.089169
   5 C :    0.114662
   6 H :   -0.041061
   7 H :   -0.052725
   8 H :   -0.048568
   9 H :   -0.051922
  10 C :   -0.305541
  11 O :    0.499201
  12 C :    0.077373
  13 H :   -0.060853
  14 H :   -0.062538
  15 H :   -0.060969
  16 C :    0.183446
  17 O :    0.540612
  18 C :   -0.319427
  19 O :    0.330478
  20 Li:   -0.395537
  21 C :   -0.071365
  22 C :    0.085971
  23 C :    0.094445
  24 C :    0.092589
  25 C :   -0.133810
  26 C :    0.084100
  27 C :   -0.744820
  28 O :    0.495957
  29 O :    0.277573
  30 C :    0.106656
  31 H :   -0.065966
  32 H :   -0.063806
  33 H :   -0.061971
  34 H :   -0.046442
  35 H :   -0.044577
  36 H :   -0.044899
  37 H :   -0.045202
  38 H :   -0.038250
  39 H :   -0.006405
  40 H :   -0.031910

  Mayer bond orders larger than 0.100000
B(  0-C ,  1-C ) :   1.3200 B(  0-C ,  5-C ) :   1.3304 B(  0-C , 11-O ) :   1.1356
B(  1-C ,  2-C ) :   1.3537 B(  1-C ,  7-H ) :   0.9504 B(  2-C ,  3-C ) :   1.4216
B(  2-C ,  8-H ) :   0.9485 B(  3-C ,  4-C ) :   1.2733 B(  3-C ,  9-H ) :   0.9591
B(  4-C ,  5-C ) :   1.2878 B(  4-C , 10-C ) :   1.0083 B(  5-C ,  6-H ) :   0.9401
B( 10-C , 16-C ) :   1.0133 B( 10-C , 17-O ) :   1.6872 B( 11-O , 12-C ) :   0.8969
B( 12-C , 13-H ) :   0.9604 B( 12-C , 14-H ) :   0.9679 B( 12-C , 15-H ) :   0.9606
B( 16-C , 18-C ) :   0.8508 B( 16-C , 38-H ) :   0.9400 B( 16-C , 39-H ) :   0.9192
B( 17-O , 20-Li) :   0.3898 B( 18-C , 19-O ) :   1.2853 B( 18-C , 21-C ) :   0.8875
B( 18-C , 40-H ) :   0.9438 B( 19-O , 20-Li) :   0.6795 B( 21-C , 22-C ) :   1.2837
B( 21-C , 23-C ) :   1.3111 B( 22-C , 26-C ) :   1.4175 B( 22-C , 35-H ) :   0.9638
B( 23-C , 24-C ) :   1.3893 B( 23-C , 37-H ) :   0.9552 B( 24-C , 25-C ) :   1.3150
B( 24-C , 36-H ) :   0.9536 B( 25-C , 26-C ) :   1.2722 B( 25-C , 27-C ) :   0.9781
B( 26-C , 34-H ) :   0.9539 B( 27-C , 28-O ) :   1.2383 B( 27-C , 29-O ) :   1.9838
B( 28-O , 30-C ) :   0.8647 B( 30-C , 31-H ) :   0.9632 B( 30-C , 32-H ) :   0.9660
B( 30-C , 33-H ) :   0.9540

Dispersion correction           -0.027286394
FINAL SINGLE POINT ENERGY     -1081.721089186943

DIPOLE MOMENT
-------------
                                X             Y             Z
Electronic contribution:      4.51631       0.35976      14.94649
Nuclear contribution   :     -7.42027       2.57200     -16.71689
                        -----------------------------------------
Total Dipole Moment    :     -2.90396       2.93177      -1.77040
                        -----------------------------------------
Magnitude (a.u.)       :      4.49027
Magnitude (Debye)      :     11.41336

Rotational constants in cm-1:     0.020499     0.002793     0.002554
Rotational constants in MHz :   614.533605    83.741341    76.571600

                             ****ORCA TERMINATED NORMALLY****
TOTAL RUN TIME: 0 days 1 hours 5 minutes 35 seconds 59 msec
