                         Program Version 5.0.2 -  RELEASE  -
|  1> ! TPSS D3BJ def2-TZVP RI def2/J CPCM(THF)
|  2> ! Opt numfreq Pal8
|  3>
|  4> * xyz 0 1
|  5> C        -3.33194377753461    0.36261607685447   -0.06638433753725
|  6> C        -2.63770674659604   -0.79063048508560    0.30020558870920
|  7> C        -1.26153690988322   -0.72512612936840    0.51324170734289
|  8> C        -0.59797148007851    0.47425420321784    0.35745967037716
|  9> C        -1.29304065072129    1.63536792507405    0.01504055081676
| 10> C        -2.66756686853916    1.56242561615206   -0.20658995526411
| 11> H        -3.20956956513482    2.44999169601162   -0.49431464133051
| 12> H        -0.72264196179288   -1.61698695010619    0.79030865433185
| 13> H         0.46782349912763    0.52388643973304    0.52283642725570
| 14> C        -0.55378149717395    2.88495674188219   -0.16754176584650
| 15> H         0.28118839569508    2.81636219827588   -0.85578315257670
| 16> C        -0.79736991851233    4.06261730674274    0.42057291312230
| 17> H        -4.39610099806310    0.29421232830115   -0.23482678392579
| 18> C        -3.38924030768199   -2.05507121054582    0.44309669765135
| 19> O        -2.61446609145047   -3.08341079485230    0.80829881292163
| 20> C        -3.25571280586798   -4.34680237776749    0.96337370836359
| 21> H        -2.45858606260827   -5.06439896801061    1.13785353260507
| 22> H        -3.81752074943684   -4.59752100399519    0.06136210828512
| 23> H        -3.94349517765349   -4.31788426826475    1.81100398540055
| 24> O        -4.58183185495114   -2.17031002331911    0.24806437619192
| 25> C        -1.82094987051844    4.30449083313377    1.45030212671749
| 26> H        -0.19838943908596    4.91741193115361    0.14565013480797
| 27> C        -2.05068810548931    5.73282615808446    1.80333448501833
| 28> O        -2.45621591319682    3.41527669402483    1.99537338818821
| 29> C        -1.01030441554725    6.65453062301067    1.92854792390583
| 30> C        -1.29572008579021    7.95687104592321    2.28901573070985
| 31> C        -2.60018257897186    8.37169956403539    2.50852810213751
| 32> C        -3.64435810107720    7.45871764770722    2.38941389169286
| 33> C        -3.35516275980890    6.13715705897922    2.05129688174487
| 34> H        -4.16401041511882    5.42706969128063    1.97374196322995
| 35> H        -2.78767740334369    9.39895796967160    2.77642606428649
| 36> H         0.01462848896654    6.35026418365145    1.78816849605414
| 37> H        -0.49237666355743    8.66948730507583    2.40052873975218
| 38> O        -4.95905587700351    7.74614499351635    2.58277905596296
| 39> C        -5.32259332864083    9.06555654833478    2.93779634716306
| 40> H        -4.87830266408921    9.35670623848867    3.89419438397735
| 41> H        -6.40686732352518    9.05060921847524    3.03107801870873
| 42> H        -5.03302079114410    9.78039480382322    2.16191461975029
| 43> *
| 44>
| 45>                          ****END OF INPUT****
 Total Charge           Charge          ....    0
 Multiplicity           Mult            ....    1
 Number of Electrons    NEL             ....  156
Dispersion correction           -0.058132356
FINAL SINGLE POINT ENERGY      -997.035825062482
Dispersion correction            ... done
Dispersion correction           -0.057599101
FINAL SINGLE POINT ENERGY      -997.039491853579
Dispersion correction            ... done
Dispersion correction           -0.057564633
FINAL SINGLE POINT ENERGY      -997.040321660339
Dispersion correction            ... done
FINAL SINGLE POINT ENERGY      -997.040779396345
FINAL SINGLE POINT ENERGY      -997.041283006534
FINAL SINGLE POINT ENERGY      -997.041648338194
FINAL SINGLE POINT ENERGY      -997.041896354918
FINAL SINGLE POINT ENERGY      -997.042210416928
FINAL SINGLE POINT ENERGY      -997.042565547447
FINAL SINGLE POINT ENERGY      -997.042785672209
FINAL SINGLE POINT ENERGY      -997.042967113923
FINAL SINGLE POINT ENERGY      -997.043015013578
FINAL SINGLE POINT ENERGY      -997.043047564162
FINAL SINGLE POINT ENERGY      -997.043085402598
FINAL SINGLE POINT ENERGY      -997.043116611328
FINAL SINGLE POINT ENERGY      -997.043133717154
FINAL SINGLE POINT ENERGY      -997.043140990332
Dispersion correction            ... done
Dispersion correction           -0.057821544
FINAL SINGLE POINT ENERGY      -997.043146701219
Dispersion correction            ... done
Dispersion correction           -0.057828099
FINAL SINGLE POINT ENERGY      -997.043147944461
Dispersion correction            ... done
                    ***********************HURRAY********************

CARTESIAN COORDINATES (ANGSTROEM)
---------------------------------
  C     -3.110729    0.528840    0.256529
  C     -2.542695   -0.752100    0.342156
  C     -1.174366   -0.880906    0.617772
  C     -0.395653    0.254516    0.808352
  C     -0.964123    1.540814    0.762462
  C     -2.334252    1.658222    0.464223
  H     -2.785208    2.640632    0.377226
  H     -0.723352   -1.865281    0.672400
  H      0.667425    0.150993    1.009295
  C     -0.088902    2.698825    0.967306
  H      0.941214    2.545304    0.646296
  C     -0.388313    3.914252    1.470094
  H     -4.165885    0.621339    0.020116
  C     -3.421388   -1.928079    0.115953
  O     -2.758787   -3.100166    0.244284
  C     -3.561546   -4.291764    0.033066
  H     -2.872437   -5.123447    0.171511
  H     -3.973223   -4.287470   -0.978529
  H     -4.371736   -4.328031    0.764607
  O     -4.612328   -1.862199   -0.155456
  C     -1.651911    4.328732    2.135993
  H      0.392353    4.671658    1.443687
  C     -2.121409    5.728514    1.917783
  O     -2.265852    3.561895    2.884399
  C     -1.577173    6.539743    0.906621
  C     -2.080481    7.822746    0.715543
  C     -3.109919    8.318722    1.519918
  C     -3.650537    7.507280    2.529551
  C     -3.157197    6.214332    2.720936
  H     -3.578461    5.582807    3.496646
  H     -3.480187    9.324105    1.354935
  H     -0.784356    6.165868    0.267223
  H     -1.671762    8.454513   -0.067854
  O     -4.657628    7.895154    3.368098
  C     -5.194298    9.218743    3.189812
  H     -4.419677    9.976235    3.353967
  H     -5.977066    9.315674    3.941734
  H     -5.620473    9.331705    2.186715

 Multiplicity           Mult            ....    1
 Number of Electrons    NEL             ....  156
 Basis Dimension        Dim             ....  778

ORBITAL ENERGIES
----------------

  NO   OCC          E(Eh)            E(eV)
   0   2.0000     -18.930922      -515.1366
   1   2.0000     -18.919520      -514.8263
   2   2.0000     -18.874099      -513.5904
   3   2.0000     -18.874015      -513.5881
   4   2.0000     -10.111835      -275.1570
   5   2.0000     -10.076469      -274.1946
   6   2.0000     -10.054483      -273.5964
   7   2.0000     -10.037660      -273.1386
   8   2.0000     -10.037346      -273.1301
   9   2.0000     -10.013992      -272.4946
  10   2.0000     -10.013346      -272.4770
  11   2.0000     -10.011106      -272.4160
  12   2.0000     -10.004573      -272.2383
  13   2.0000     -10.002668      -272.1864
  14   2.0000     -10.001669      -272.1592
  15   2.0000     -10.000791      -272.1354
  16   2.0000     -10.000628      -272.1309
  17   2.0000      -9.999481      -272.0997
  18   2.0000      -9.999441      -272.0986
  19   2.0000      -9.998921      -272.0845
  20   2.0000      -9.995694      -271.9967
  21   2.0000      -9.994933      -271.9760
  22   2.0000      -1.032876       -28.1060
  23   2.0000      -0.998461       -27.1695
  24   2.0000      -0.969096       -26.3704
  25   2.0000      -0.947939       -25.7947
  26   2.0000      -0.814298       -22.1582
  27   2.0000      -0.803709       -21.8700
  28   2.0000      -0.756567       -20.5872
  29   2.0000      -0.720267       -19.5995
  30   2.0000      -0.707938       -19.2640
  31   2.0000      -0.703731       -19.1495
  32   2.0000      -0.700883       -19.0720
  33   2.0000      -0.667466       -18.1627
  34   2.0000      -0.646755       -17.5991
  35   2.0000      -0.621495       -16.9117
  36   2.0000      -0.585817       -15.9409
  37   2.0000      -0.569545       -15.4981
  38   2.0000      -0.558127       -15.1874
  39   2.0000      -0.545790       -14.8517
  40   2.0000      -0.521674       -14.1955
  41   2.0000      -0.504140       -13.7183
  42   2.0000      -0.493560       -13.4305
  43   2.0000      -0.474939       -12.9237
  44   2.0000      -0.450001       -12.2452
  45   2.0000      -0.449026       -12.2186
  46   2.0000      -0.444021       -12.0824
  47   2.0000      -0.437765       -11.9122
  48   2.0000      -0.434770       -11.8307
  49   2.0000      -0.424854       -11.5609
  50   2.0000      -0.418764       -11.3951
  51   2.0000      -0.416264       -11.3271
  52   2.0000      -0.408584       -11.1181
  53   2.0000      -0.395943       -10.7741
  54   2.0000      -0.391861       -10.6631
  55   2.0000      -0.387916       -10.5557
  56   2.0000      -0.384422       -10.4607
  57   2.0000      -0.376164       -10.2359
  58   2.0000      -0.371529       -10.1098
  59   2.0000      -0.364337        -9.9141
  60   2.0000      -0.361086        -9.8257
  61   2.0000      -0.342823        -9.3287
  62   2.0000      -0.340648        -9.2695
  63   2.0000      -0.335469        -9.1286
  64   2.0000      -0.334462        -9.1012
  65   2.0000      -0.323535        -8.8038
  66   2.0000      -0.320000        -8.7076
  67   2.0000      -0.310156        -8.4398
  68   2.0000      -0.296154        -8.0588
  69   2.0000      -0.293113        -7.9760
  70   2.0000      -0.278714        -7.5842
  71   2.0000      -0.272727        -7.4213
  72   2.0000      -0.244142        -6.6434
  73   2.0000      -0.243610        -6.6290
  74   2.0000      -0.240362        -6.5406
  75   2.0000      -0.223286        -6.0759
  76   2.0000      -0.219239        -5.9658
  77   2.0000      -0.207604        -5.6492
  78   0.0000      -0.114606        -3.1186
  79   0.0000      -0.081257        -2.2111
  80   0.0000      -0.045370        -1.2346
  81   0.0000      -0.038543        -1.0488
  82   0.0000      -0.033469        -0.9107

MULLIKEN ATOMIC CHARGES
-----------------------
   0 C :   -0.206335
   1 C :    0.137732
   2 C :   -0.194499
   3 C :   -0.184326
   4 C :    0.236776
   5 C :   -0.129290
   6 H :    0.133874
   7 H :    0.133832
   8 H :    0.129230
   9 C :   -0.172062
  10 H :    0.147071
  11 C :   -0.211936
  12 H :    0.131144
  13 C :    0.315485
  14 O :   -0.227661
  15 C :   -0.236080
  16 H :    0.151782
  17 H :    0.147203
  18 H :    0.147608
  19 O :   -0.388745
  20 C :    0.277294
  21 H :    0.161986
  22 C :    0.143720
  23 O :   -0.365293
  24 C :   -0.202477
  25 C :   -0.154112
  26 C :   -0.240970
  27 C :    0.344398
  28 C :   -0.313662
  29 H :    0.111005
  30 H :    0.146329
  31 H :    0.133633
  32 H :    0.134994
  33 O :   -0.250798
  34 C :   -0.230981
  35 H :    0.143939
  36 H :    0.156012
  37 H :    0.144180
Sum of atomic charges:   -0.0000000

LOEWDIN ATOMIC CHARGES
----------------------
   0 C :   -0.078899
   1 C :   -0.122152
   2 C :   -0.086619
   3 C :   -0.087140
   4 C :   -0.123615
   5 C :   -0.080208
   6 H :    0.157876
   7 H :    0.155170
   8 H :    0.155486
   9 C :   -0.081378
  10 H :    0.163809
  11 C :   -0.116467
  12 H :    0.156759
  13 C :   -0.440244
  14 O :    0.241309
  15 C :   -0.287780
  16 H :    0.117102
  17 H :    0.115429
  18 H :    0.115596
  19 O :    0.070247
  20 C :   -0.283575
  21 H :    0.162423
  22 C :   -0.127086
  23 O :    0.095737
  24 C :   -0.110254
  25 C :   -0.133434
  26 C :   -0.117994
  27 C :   -0.250943
  28 C :   -0.062390
  29 H :    0.156781
  30 H :    0.155677
  31 H :    0.154007
  32 H :    0.151221
  33 O :    0.226292
  34 C :   -0.305473
  35 H :    0.113240
  36 H :    0.118132
  37 H :    0.113361

  Mayer bond orders larger than 0.100000
B(  0-C ,  1-C ) :   1.3036 B(  0-C ,  5-C ) :   1.4350 B(  0-C , 12-H ) :   0.9807
B(  1-C ,  2-C ) :   1.3245 B(  1-C , 13-C ) :   1.0169 B(  1-C , 14-O ) :  -0.1123
B(  2-C ,  3-C ) :   1.4067 B(  2-C ,  7-H ) :   0.9877 B(  3-C ,  4-C ) :   1.2743
B(  3-C ,  8-H ) :   1.0012 B(  4-C ,  5-C ) :   1.2841 B(  4-C ,  9-C ) :   0.9706
B(  5-C ,  6-H ) :   0.9802 B(  9-C , 10-H ) :   0.9549 B(  9-C , 11-C ) :   1.8301
B( 11-C , 20-C ) :   1.0123 B( 11-C , 21-H ) :   0.9263 B( 13-C , 14-O ) :   1.2338
B( 13-C , 19-O ) :   1.9297 B( 14-O , 15-C ) :   0.9034 B( 15-C , 16-H ) :   0.9623
B( 15-C , 17-H ) :   0.9643 B( 15-C , 18-H ) :   0.9641 B( 20-C , 22-C ) :   0.9905
B( 20-C , 23-O ) :   1.9197 B( 22-C , 24-C ) :   1.2912 B( 22-C , 28-C ) :   1.3298
B( 24-C , 25-C ) :   1.4322 B( 24-C , 31-H ) :   0.9662 B( 25-C , 26-C ) :   1.3691
B( 25-C , 32-H ) :   0.9677 B( 26-C , 27-C ) :   1.2617 B( 26-C , 30-H ) :   0.9575
B( 27-C , 28-C ) :   1.3189 B( 27-C , 33-O ) :   1.1528 B( 28-C , 29-H ) :   1.0144
B( 33-O , 34-C ) :   0.9356 B( 34-C , 35-H ) :   0.9570 B( 34-C , 36-H ) :   0.9621
B( 34-C , 37-H ) :   0.9572

Dispersion correction           -0.057834223
FINAL SINGLE POINT ENERGY      -997.043148895108

DIPOLE MOMENT
-------------
                                X             Y             Z
Electronic contribution:      2.73398      -4.68299       0.74307
Nuclear contribution   :     -1.45160       6.28843      -1.63335
                        -----------------------------------------
Total Dipole Moment    :      1.28238       1.60543      -0.89028
                        -----------------------------------------
Magnitude (a.u.)       :      2.23931
Magnitude (Debye)      :      5.69188

VIBRATIONAL FREQUENCIES
-----------------------

Scaling factor for frequencies =  1.000000000 (already applied!)

   0:         0.00 cm**-1
   1:         0.00 cm**-1
   2:         0.00 cm**-1
   3:         0.00 cm**-1
   4:         0.00 cm**-1
   5:         0.00 cm**-1
   6:        11.07 cm**-1
   7:        13.15 cm**-1
   8:        21.75 cm**-1
   9:        45.51 cm**-1
  10:        56.84 cm**-1
  11:        81.16 cm**-1
  12:        95.65 cm**-1
  13:       112.70 cm**-1
  14:       132.03 cm**-1
  15:       145.54 cm**-1
  16:       152.06 cm**-1
  17:       169.79 cm**-1
  18:       200.55 cm**-1
  19:       204.53 cm**-1
  20:       236.76 cm**-1
  21:       260.49 cm**-1
  22:       268.80 cm**-1
  23:       276.82 cm**-1
  24:       308.35 cm**-1
  25:       328.52 cm**-1
  26:       376.36 cm**-1
  27:       402.31 cm**-1
  28:       416.21 cm**-1
  29:       426.47 cm**-1
  30:       453.86 cm**-1
  31:       476.77 cm**-1
  32:       490.52 cm**-1
  33:       537.98 cm**-1
  34:       555.14 cm**-1
  35:       559.02 cm**-1
  36:       609.23 cm**-1
  37:       633.35 cm**-1
  38:       655.05 cm**-1
  39:       683.30 cm**-1
  40:       693.50 cm**-1
  41:       710.99 cm**-1
  42:       760.59 cm**-1
  43:       761.97 cm**-1
  44:       784.61 cm**-1
  45:       804.69 cm**-1
  46:       816.13 cm**-1
  47:       827.28 cm**-1
  48:       842.40 cm**-1
  49:       864.66 cm**-1
  50:       882.87 cm**-1
  51:       894.46 cm**-1
  52:       919.00 cm**-1
  53:       948.50 cm**-1
  54:       961.05 cm**-1
  55:       966.84 cm**-1
  56:       984.85 cm**-1
  57:       992.40 cm**-1
  58:       997.14 cm**-1
  59:      1006.31 cm**-1
  60:      1019.26 cm**-1
  61:      1043.38 cm**-1
  62:      1097.43 cm**-1
  63:      1102.91 cm**-1
  64:      1118.94 cm**-1
  65:      1148.33 cm**-1
  66:      1149.66 cm**-1
  67:      1157.44 cm**-1
  68:      1175.14 cm**-1
  69:      1178.84 cm**-1
  70:      1183.64 cm**-1
  71:      1190.82 cm**-1
  72:      1198.61 cm**-1
  73:      1238.57 cm**-1
  74:      1251.97 cm**-1
  75:      1259.55 cm**-1
  76:      1293.18 cm**-1
  77:      1324.08 cm**-1
  78:      1344.55 cm**-1
  79:      1358.25 cm**-1
  80:      1411.52 cm**-1
  81:      1428.14 cm**-1
  82:      1444.02 cm**-1
  83:      1447.46 cm**-1
  84:      1458.59 cm**-1
  85:      1467.33 cm**-1
  86:      1476.05 cm**-1
  87:      1477.09 cm**-1
  88:      1487.16 cm**-1
  89:      1490.84 cm**-1
  90:      1516.40 cm**-1
  91:      1565.23 cm**-1
  92:      1579.84 cm**-1
  93:      1591.69 cm**-1
  94:      1610.65 cm**-1
  95:      1614.42 cm**-1
  96:      1647.46 cm**-1
  97:      1673.24 cm**-1
  98:      2988.44 cm**-1
  99:      3024.42 cm**-1
 100:      3052.10 cm**-1
 101:      3099.94 cm**-1
 102:      3101.39 cm**-1
 103:      3114.42 cm**-1
 104:      3130.53 cm**-1
 105:      3133.65 cm**-1
 106:      3138.68 cm**-1
 107:      3140.38 cm**-1
 108:      3156.89 cm**-1
 109:      3160.99 cm**-1
 110:      3161.75 cm**-1
 111:      3171.44 cm**-1
 112:      3175.47 cm**-1
 113:      3175.92 cm**-1

IR SPECTRUM
-----------

 Mode   freq       eps      Int      T**2         TX        TY        TZ
       cm**-1   L/(mol*cm) km/mol    a.u.
----------------------------------------------------------------------------
  6:     11.07   0.000242    1.22  0.006819  ( 0.073499  0.000496  0.037641)
  7:     13.15   0.000674    3.41  0.015990  (-0.023845 -0.014657 -0.123317)
  8:     21.75   0.000226    1.14  0.003236  (-0.004030 -0.007144  0.056295)
  9:     45.51   0.000163    0.82  0.001118  (-0.025162  0.001204  0.021993)
 10:     56.84   0.000236    1.19  0.001294  (-0.030516 -0.010400 -0.015947)
 11:     81.16   0.000841    4.25  0.003233  (-0.030370 -0.030389 -0.037239)
 12:     95.65   0.000684    3.45  0.002230  ( 0.019187  0.042673 -0.006398)
 13:    112.70   0.000315    1.59  0.000873  (-0.018159 -0.013560  0.018949)
 14:    132.03   0.001336    6.75  0.003157  ( 0.035331 -0.017746  0.039920)
 15:    145.54   0.000120    0.61  0.000258  ( 0.011262 -0.005293 -0.010134)
 16:    152.06   0.000002    0.01  0.000003  ( 0.001809 -0.000134  0.000035)
 17:    169.79   0.001047    5.29  0.001925  ( 0.002451 -0.027455 -0.034139)
 18:    200.55   0.000136    0.69  0.000211  ( 0.006206 -0.008871 -0.009689)
 19:    204.53   0.000269    1.36  0.000410  (-0.017280  0.010359 -0.002003)
 20:    236.76   0.001476    7.46  0.001945  (-0.007756  0.043418  0.000129)
 21:    260.49   0.000272    1.37  0.000326  (-0.011766  0.005047  0.012714)
 22:    268.80   0.001218    6.15  0.001414  ( 0.004470 -0.000882  0.037321)
 23:    276.82   0.003021   15.27  0.003405  (-0.027456  0.042827  0.028590)
 24:    308.35   0.004204   21.25  0.004255  ( 0.015108 -0.063400  0.002705)
 25:    328.52   0.001362    6.88  0.001294  (-0.008814 -0.033707  0.008960)
 26:    376.36   0.000654    3.31  0.000543  (-0.021360 -0.004831  0.007937)
 27:    402.31   0.000122    0.62  0.000095  (-0.001646  0.007967  0.005341)
 28:    416.21   0.000206    1.04  0.000155  (-0.003942 -0.010183 -0.005942)
 29:    426.47   0.000337    1.70  0.000247  (-0.008500 -0.000421 -0.013202)
 30:    453.86   0.002327   11.76  0.001600  ( 0.017917  0.032749  0.014369)
 31:    476.77   0.004080   20.62  0.002670  ( 0.014974 -0.008669 -0.048694)
 32:    490.52   0.000878    4.44  0.000559  (-0.001791 -0.017749  0.015503)
 33:    537.98   0.004313   21.79  0.002502  (-0.029383  0.037995  0.013949)
 34:    555.14   0.001242    6.28  0.000698  ( 0.023291 -0.012185 -0.002732)
 35:    559.02   0.001767    8.93  0.000986  (-0.018371 -0.000669  0.025463)
 36:    609.23   0.001407    7.11  0.000721  (-0.000084  0.025424  0.008621)
 37:    633.35   0.001227    6.20  0.000604  (-0.007557  0.023373 -0.001043)
 38:    655.05   0.007652   38.67  0.003645  ( 0.007441 -0.051708 -0.030273)
 39:    683.30   0.004526   22.87  0.002067  ( 0.026967  0.025234  0.026518)
 40:    693.50   0.007244   36.61  0.003260  ( 0.031090 -0.014165 -0.045742)
 41:    710.99   0.005641   28.51  0.002476  (-0.014247  0.019928 -0.043313)
 42:    760.59   0.008433   42.62  0.003460  (-0.046266 -0.022391 -0.028600)
 43:    761.97   0.001516    7.66  0.000621  ( 0.005319 -0.006345 -0.023498)
 44:    784.61   0.015520   78.43  0.006173  ( 0.024435  0.035870  0.065490)
 45:    804.69   0.003376   17.06  0.001309  ( 0.015060 -0.001408 -0.032871)
 46:    816.13   0.008526   43.09  0.003260  ( 0.021585 -0.041135 -0.033200)
 47:    827.28   0.005907   29.85  0.002228  (-0.038908  0.026727 -0.000206)
 48:    842.40   0.001042    5.27  0.000386  (-0.004761 -0.001439  0.019011)
 49:    864.66   0.011599   58.62  0.004186  (-0.017716  0.016837  0.059906)
 50:    882.87   0.000288    1.46  0.000102  (-0.008879 -0.003165 -0.003606)
 51:    894.46   0.010057   50.82  0.003509  ( 0.018927  0.036392  0.042733)
 52:    919.00   0.002624   13.26  0.000891  (-0.013414  0.022251  0.014700)
 53:    948.50   0.004026   20.35  0.001325  ( 0.032524  0.014954  0.006579)
 54:    961.05   0.000040    0.20  0.000013  (-0.003106 -0.000831  0.001579)
 55:    966.84   0.000294    1.49  0.000095  ( 0.005402 -0.004552 -0.006707)
 56:    984.85   0.000880    4.45  0.000279  ( 0.000449 -0.016190 -0.004070)
 57:    992.40   0.002335   11.80  0.000734  ( 0.009545 -0.024461  0.006698)
 58:    997.14   0.014854   75.07  0.004649  ( 0.018282 -0.064930 -0.009934)
 59:   1006.31   0.053982  272.80  0.016740  (-0.058249  0.115004  0.011019)
 60:   1019.26   0.006750   34.11  0.002067  (-0.015409 -0.042344 -0.006009)
 61:   1043.38   0.000490    2.48  0.000147  ( 0.010832 -0.004051  0.003589)
 62:   1097.43   0.061062  308.58  0.017364  (-0.007575 -0.131499 -0.003788)
 63:   1102.91   0.000886    4.48  0.000251  (-0.007896 -0.002222  0.013540)
 64:   1118.94   0.000882    4.46  0.000246  (-0.013670  0.006695 -0.003771)
 65:   1148.33   0.000383    1.94  0.000104  ( 0.001257 -0.003389 -0.009546)
 66:   1149.66   0.000266    1.35  0.000072  (-0.006814 -0.002764 -0.004266)
 67:   1157.44   0.013001   65.70  0.003505  ( 0.009601  0.055093 -0.019437)
 68:   1175.14   0.015053   76.07  0.003997  (-0.008528 -0.062582  0.002857)
 69:   1178.84   0.020535  103.78  0.005436  ( 0.008351  0.073143  0.004056)
 70:   1183.64   0.011086   56.02  0.002923  (-0.018776 -0.050372 -0.005739)
 71:   1190.82   0.013194   66.68  0.003458  ( 0.011141 -0.057735 -0.000483)
 72:   1198.61   0.018478   93.38  0.004811  (-0.003751 -0.066742  0.018502)
 73:   1238.57   0.006983   35.29  0.001759  ( 0.014428 -0.035469 -0.017122)
 74:   1251.97   0.206194  1042.02  0.051395  (-0.102100  0.193320  0.059986)
 75:   1259.55   0.080723  407.94  0.020000  (-0.056791 -0.129508 -0.001420)
 76:   1293.18   0.012086   61.08  0.002916  ( 0.034689 -0.035332 -0.021557)
 77:   1324.08   0.003557   17.97  0.000838  ( 0.011377  0.026568  0.001706)
 78:   1344.55   0.000589    2.98  0.000137  (-0.008442 -0.005693 -0.005747)
 79:   1358.25   0.006916   34.95  0.001589  (-0.005583  0.038328 -0.009420)
 80:   1411.52   0.007049   35.62  0.001558  ( 0.027720 -0.027898 -0.003408)
 81:   1428.14   0.001221    6.17  0.000267  (-0.002256  0.016177  0.000335)
 82:   1444.02   0.026234  132.58  0.005669  (-0.046167  0.053916  0.025121)
 83:   1447.46   0.006346   32.07  0.001368  (-0.025146 -0.026899 -0.003488)
 84:   1458.59   0.012243   61.87  0.002619  (-0.025076  0.044480  0.003484)
 85:   1467.33   0.002197   11.10  0.000467  (-0.003780  0.000553  0.021277)
 86:   1476.05   0.001929    9.75  0.000408  (-0.010810 -0.007096 -0.015510)
 87:   1477.09   0.002260   11.42  0.000477  ( 0.010526 -0.018783  0.003711)
 88:   1487.16   0.002537   12.82  0.000532  ( 0.017125 -0.004376 -0.014834)
 89:   1490.84   0.010736   54.25  0.002247  (-0.034403  0.017737  0.027369)
 90:   1516.40   0.000214    1.08  0.000044  (-0.000632  0.004984  0.004336)
 91:   1565.23   0.005676   28.69  0.001132  ( 0.012099  0.026940  0.016111)
 92:   1579.84   0.037334  188.67  0.007375  ( 0.058946 -0.008355 -0.061888)
 93:   1591.69   0.024242  122.51  0.004753  (-0.031031 -0.015113  0.059678)
 94:   1610.65   0.002614   13.21  0.000506  (-0.021339  0.000317  0.007139)
 95:   1614.42   0.013186   66.64  0.002549  (-0.011996 -0.040556 -0.027570)
 96:   1647.46   0.057835  292.27  0.010955  ( 0.006997 -0.101445  0.024803)
 97:   1673.24   0.104964  530.45  0.019576  (-0.134378 -0.020039 -0.033422)
 98:   2988.44   0.012674   64.05  0.001323  (-0.013906  0.033487 -0.002946)
 99:   3024.42   0.006830   34.52  0.000705  ( 0.011420  0.023744  0.003249)
100:   3052.10   0.009017   45.57  0.000922  (-0.020762 -0.010383 -0.019572)
101:   3099.94   0.005290   26.73  0.000533  ( 0.005110 -0.000210 -0.022503)
102:   3101.39   0.003528   17.83  0.000355  ( 0.018408  0.002387 -0.003231)
103:   3114.42   0.003813   19.27  0.000382  (-0.013986  0.001542  0.013567)
104:   3130.53   0.002117   10.70  0.000211  (-0.009296 -0.011131  0.000859)
105:   3133.65   0.003463   17.50  0.000345  ( 0.013326 -0.012579  0.003011)
106:   3138.68   0.003755   18.97  0.000373  (-0.019246 -0.000027 -0.001703)
107:   3140.38   0.002335   11.80  0.000232  (-0.003018 -0.011337  0.009718)
108:   3156.89   0.000563    2.84  0.000056  ( 0.003006  0.006804  0.000567)
109:   3160.99   0.001332    6.73  0.000131  (-0.006357  0.008623  0.004088)
110:   3161.75   0.002652   13.40  0.000262  ( 0.011409 -0.003077 -0.011051)
111:   3171.44   0.002473   12.50  0.000243  ( 0.008494 -0.012765  0.002869)
112:   3175.47   0.001545    7.81  0.000152  (-0.003487  0.011463 -0.002877)
113:   3175.92   0.000753    3.81  0.000074  (-0.006141  0.005989  0.000653)

--------------------------
THERMOCHEMISTRY AT 298.15K
--------------------------

Temperature         ... 298.15 K
Pressure            ... 1.00 atm
Total Mass          ... 296.32 AMU

Throughout the following assumptions are being made:
  (1) The electronic state is orbitally nondegenerate
  (2) There are no thermally accessible electronically excited states
  (3) Hindered rotations indicated by low frequency modes are not
      treated as such but are treated as vibrations and this may
      cause some error
  (4) All equations used are the standard statistical mechanics
      equations for an ideal gas
  (5) All vibrations are strictly harmonic

freq.      11.07  E(vib)   ...       0.58
freq.      13.15  E(vib)   ...       0.57
freq.      21.75  E(vib)   ...       0.56
freq.      45.51  E(vib)   ...       0.53
freq.      56.84  E(vib)   ...       0.51
freq.      81.16  E(vib)   ...       0.48
freq.      95.65  E(vib)   ...       0.47
freq.     112.70  E(vib)   ...       0.45
freq.     132.03  E(vib)   ...       0.42
freq.     145.54  E(vib)   ...       0.41
freq.     152.06  E(vib)   ...       0.40
freq.     169.79  E(vib)   ...       0.38
freq.     200.55  E(vib)   ...       0.35
freq.     204.53  E(vib)   ...       0.35
freq.     236.76  E(vib)   ...       0.32
freq.     260.49  E(vib)   ...       0.30
freq.     268.80  E(vib)   ...       0.29
freq.     276.82  E(vib)   ...       0.28
freq.     308.35  E(vib)   ...       0.26
freq.     328.52  E(vib)   ...       0.24
freq.     376.36  E(vib)   ...       0.21
freq.     402.31  E(vib)   ...       0.19
freq.     416.21  E(vib)   ...       0.18
freq.     426.47  E(vib)   ...       0.18
freq.     453.86  E(vib)   ...       0.16
freq.     476.77  E(vib)   ...       0.15
freq.     490.52  E(vib)   ...       0.15
freq.     537.98  E(vib)   ...       0.12
freq.     555.14  E(vib)   ...       0.12
freq.     559.02  E(vib)   ...       0.12
freq.     609.23  E(vib)   ...       0.10
freq.     633.35  E(vib)   ...       0.09
freq.     655.05  E(vib)   ...       0.08
freq.     683.30  E(vib)   ...       0.08
freq.     693.50  E(vib)   ...       0.07
freq.     710.99  E(vib)   ...       0.07
freq.     760.59  E(vib)   ...       0.06
freq.     761.97  E(vib)   ...       0.06
freq.     784.61  E(vib)   ...       0.05
freq.     804.69  E(vib)   ...       0.05
freq.     816.13  E(vib)   ...       0.05
freq.     827.28  E(vib)   ...       0.04
freq.     842.40  E(vib)   ...       0.04
freq.     864.66  E(vib)   ...       0.04
freq.     882.87  E(vib)   ...       0.04
freq.     894.46  E(vib)   ...       0.03
freq.     919.00  E(vib)   ...       0.03
freq.     948.50  E(vib)   ...       0.03
freq.     961.05  E(vib)   ...       0.03
freq.     966.84  E(vib)   ...       0.03
freq.     984.85  E(vib)   ...       0.02
freq.     992.40  E(vib)   ...       0.02
freq.     997.14  E(vib)   ...       0.02
freq.    1006.31  E(vib)   ...       0.02
freq.    1019.26  E(vib)   ...       0.02
freq.    1043.38  E(vib)   ...       0.02
freq.    1097.43  E(vib)   ...       0.02
freq.    1102.91  E(vib)   ...       0.02
freq.    1118.94  E(vib)   ...       0.01
freq.    1148.33  E(vib)   ...       0.01
freq.    1149.66  E(vib)   ...       0.01
freq.    1157.44  E(vib)   ...       0.01
freq.    1175.14  E(vib)   ...       0.01
freq.    1178.84  E(vib)   ...       0.01
freq.    1183.64  E(vib)   ...       0.01
freq.    1190.82  E(vib)   ...       0.01
freq.    1198.61  E(vib)   ...       0.01
freq.    1238.57  E(vib)   ...       0.01
freq.    1251.97  E(vib)   ...       0.01
freq.    1259.55  E(vib)   ...       0.01
freq.    1293.18  E(vib)   ...       0.01
freq.    1324.08  E(vib)   ...       0.01
freq.    1344.55  E(vib)   ...       0.01
freq.    1358.25  E(vib)   ...       0.01
freq.    1411.52  E(vib)   ...       0.00
freq.    1428.14  E(vib)   ...       0.00
freq.    1444.02  E(vib)   ...       0.00
freq.    1447.46  E(vib)   ...       0.00
freq.    1458.59  E(vib)   ...       0.00
freq.    1467.33  E(vib)   ...       0.00
freq.    1476.05  E(vib)   ...       0.00
freq.    1477.09  E(vib)   ...       0.00
freq.    1487.16  E(vib)   ...       0.00
freq.    1490.84  E(vib)   ...       0.00
freq.    1516.40  E(vib)   ...       0.00
freq.    1565.23  E(vib)   ...       0.00
freq.    1579.84  E(vib)   ...       0.00
freq.    1591.69  E(vib)   ...       0.00
freq.    1610.65  E(vib)   ...       0.00
freq.    1614.42  E(vib)   ...       0.00
freq.    1647.46  E(vib)   ...       0.00
freq.    1673.24  E(vib)   ...       0.00
freq.    2988.44  E(vib)   ...       0.00
freq.    3024.42  E(vib)   ...       0.00
freq.    3052.10  E(vib)   ...       0.00
freq.    3099.94  E(vib)   ...       0.00
freq.    3101.39  E(vib)   ...       0.00
freq.    3114.42  E(vib)   ...       0.00
freq.    3130.53  E(vib)   ...       0.00
freq.    3133.65  E(vib)   ...       0.00
freq.    3138.68  E(vib)   ...       0.00
freq.    3140.38  E(vib)   ...       0.00
freq.    3156.89  E(vib)   ...       0.00
freq.    3160.99  E(vib)   ...       0.00
freq.    3161.75  E(vib)   ...       0.00
freq.    3171.44  E(vib)   ...       0.00
freq.    3175.47  E(vib)   ...       0.00
freq.    3175.92  E(vib)   ...       0.00

------------
INNER ENERGY
------------

The inner energy is: U= E(el) + E(ZPE) + E(vib) + E(rot) + E(trans)
    E(el)   - is the total energy from the electronic structure calculation
              = E(kin-el) + E(nuc-el) + E(el-el) + E(nuc-nuc)
    E(ZPE)  - the the zero temperature vibrational energy from the frequency calculation
    E(vib)  - the the finite temperature correction to E(ZPE) due to population
              of excited vibrational states
    E(rot)  - is the rotational thermal energy
    E(trans)- is the translational thermal energy

Summary of contributions to the inner energy U:
Electronic energy                ...   -997.04314889 Eh
Zero point energy                ...      0.29380623 Eh     184.37 kcal/mol
Thermal vibrational correction   ...      0.01779617 Eh      11.17 kcal/mol
Thermal rotational correction    ...      0.00141627 Eh       0.89 kcal/mol
Thermal translational correction ...      0.00141627 Eh       0.89 kcal/mol
-----------------------------------------------------------------------
Total thermal energy                   -996.72871394 Eh

Summary of corrections to the electronic energy:
(perhaps to be used in another calculation)
Total thermal correction                  0.02062872 Eh      12.94 kcal/mol
Non-thermal (ZPE) correction              0.29380623 Eh     184.37 kcal/mol
-----------------------------------------------------------------------
Total correction                          0.31443495 Eh     197.31 kcal/mol

--------
ENTHALPY
--------

Rotational constants in cm-1:     0.022568     0.003129     0.002879

                             ****ORCA TERMINATED NORMALLY****
TOTAL RUN TIME: 0 days 6 hours 45 minutes 20 seconds 6 msec
