                         Program Version 5.0.2 -  RELEASE  -
|  1> ! PW6B95 D3BJ def2-QZVP RIJK def2/JK tightSCF CPCM(THF)
|  2> ! sp Pal8
|  3>
|  4> * xyz 0 1
|  5>   C   -3.11072933947487      0.52884019970400      0.25652910329326
|  6>   C   -2.54269460971587     -0.75209951760385      0.34215557285234
|  7>   C   -1.17436582822338     -0.88090551364996      0.61777230992968
|  8>   C   -0.39565259031227      0.25451585259855      0.80835211425081
|  9>   C   -0.96412306847822      1.54081358672193      0.76246181056740
| 10>   C   -2.33425242998420      1.65822187821794      0.46422293722466
| 11>   H   -2.78520833233086      2.64063240089420      0.37722565580235
| 12>   H   -0.72335177862831     -1.86528061789196      0.67239989557204
| 13>   H   0.66742467105612      0.15099303419790      1.00929456438131
| 14>   C   -0.08890242916000      2.69882540633749      0.96730551932783
| 15>   H   0.94121375977261      2.54530362719684      0.64629611286877
| 16>   C   -0.38831295961462      3.91425202416308      1.47009405339556
| 17>   H   -4.16588520575502      0.62133897127143      0.02011590650275
| 18>   C   -3.42138833729417     -1.92807919586869      0.11595330999325
| 19>   O   -2.75878710443268     -3.10016617673945      0.24428384688355
| 20>   C   -3.56154597536710     -4.29176420055223      0.03306622125676
| 21>   H   -2.87243720397849     -5.12344683955525      0.17151052953821
| 22>   H   -3.97322258419575     -4.28747045755663     -0.97852864542861
| 23>   H   -4.37173642150336     -4.32803118023906      0.76460730533121
| 24>   O   -4.61232771021778     -1.86219914963487     -0.15545616369239
| 25>   C   -1.65191087951929      4.32873235564202      2.13599318133380
| 26>   H   0.39235338423861      4.67165826979878      1.44368691625319
| 27>   C   -2.12140898531112      5.72851449808297      1.91778340118889
| 28>   O   -2.26585246547925      3.56189460735838      2.88439870672750
| 29>   C   -1.57717284176993      6.53974302151054      0.90662068088969
| 30>   C   -2.08048118123513      7.82274628436150      0.71554316568519
| 31>   C   -3.10991881684982      8.31872232532396      1.51991783926734
| 32>   C   -3.65053683931622      7.50727974116191      2.52955081903955
| 33>   C   -3.15719659277666      6.21433151165645      2.72093550732843
| 34>   H   -3.57846132534987      5.58280696104913      3.49664600317511
| 35>   H   -3.48018735687728      9.32410455495248      1.35493513180507
| 36>   H   -0.78435605629714      6.16586768208789      0.26722339899332
| 37>   H   -1.67176168849650      8.45451306538517     -0.06785373514852
| 38>   O   -4.65762777931121      7.89515395548065      3.36809809233145
| 39>   C   -5.19429805451408      9.21874321699177      3.18981185197379
| 40>   H   -4.41967688411845      9.97623546860935      3.35396659696315
| 41>   H   -5.97706643009310      9.31567374477497      3.94173371361349
| 42>   H   -5.62047250488478      9.33170543306025      2.18671521943110
| 43> *
| 44>
| 45>                          ****END OF INPUT****

CARTESIAN COORDINATES (ANGSTROEM)
---------------------------------
  C     -3.110729    0.528840    0.256529
  C     -2.542695   -0.752100    0.342156
  C     -1.174366   -0.880906    0.617772
  C     -0.395653    0.254516    0.808352
  C     -0.964123    1.540814    0.762462
  C     -2.334252    1.658222    0.464223
  H     -2.785208    2.640632    0.377226
  H     -0.723352   -1.865281    0.672400
  H      0.667425    0.150993    1.009295
  C     -0.088902    2.698825    0.967306
  H      0.941214    2.545304    0.646296
  C     -0.388313    3.914252    1.470094
  H     -4.165885    0.621339    0.020116
  C     -3.421388   -1.928079    0.115953
  O     -2.758787   -3.100166    0.244284
  C     -3.561546   -4.291764    0.033066
  H     -2.872437   -5.123447    0.171511
  H     -3.973223   -4.287470   -0.978529
  H     -4.371736   -4.328031    0.764607
  O     -4.612328   -1.862199   -0.155456
  C     -1.651911    4.328732    2.135993
  H      0.392353    4.671658    1.443687
  C     -2.121409    5.728514    1.917783
  O     -2.265852    3.561895    2.884399
  C     -1.577173    6.539743    0.906621
  C     -2.080481    7.822746    0.715543
  C     -3.109919    8.318722    1.519918
  C     -3.650537    7.507280    2.529551
  C     -3.157197    6.214332    2.720936
  H     -3.578461    5.582807    3.496646
  H     -3.480187    9.324105    1.354935
  H     -0.784356    6.165868    0.267223
  H     -1.671762    8.454513   -0.067854
  O     -4.657628    7.895154    3.368098
  C     -5.194298    9.218743    3.189812
  H     -4.419677    9.976235    3.353967
  H     -5.977066    9.315674    3.941734
  H     -5.620473    9.331705    2.186715

 Total Charge           Charge          ....    0
 Multiplicity           Mult            ....    1
 Number of Electrons    NEL             ....  156
 Basis Dimension        Dim             .... 1734

ORBITAL ENERGIES
----------------

  NO   OCC          E(Eh)            E(eV)
   0   2.0000     -19.346809      -526.4534
   1   2.0000     -19.332809      -526.0725
   2   2.0000     -19.291434      -524.9466
   3   2.0000     -19.290731      -524.9275
   4   2.0000     -10.436653      -283.9958
   5   2.0000     -10.398954      -282.9699
   6   2.0000     -10.372001      -282.2365
   7   2.0000     -10.347154      -281.5604
   8   2.0000     -10.346133      -281.5326
   9   2.0000     -10.329887      -281.0905
  10   2.0000     -10.328372      -281.0493
  11   2.0000     -10.326317      -280.9934
  12   2.0000     -10.321027      -280.8494
  13   2.0000     -10.316922      -280.7377
  14   2.0000     -10.315529      -280.6998
  15   2.0000     -10.314944      -280.6839
  16   2.0000     -10.314073      -280.6602
  17   2.0000     -10.313260      -280.6381
  18   2.0000     -10.312803      -280.6256
  19   2.0000     -10.312650      -280.6215
  20   2.0000     -10.310036      -280.5504
  21   2.0000     -10.308993      -280.5219
  22   2.0000      -1.137999       -30.9665
  23   2.0000      -1.098613       -29.8948
  24   2.0000      -1.073627       -29.2149
  25   2.0000      -1.050450       -28.5842
  26   2.0000      -0.903119       -24.5751
  27   2.0000      -0.892412       -24.2838
  28   2.0000      -0.842160       -22.9164
  29   2.0000      -0.803805       -21.8727
  30   2.0000      -0.789620       -21.4867
  31   2.0000      -0.785149       -21.3650
  32   2.0000      -0.782576       -21.2950
  33   2.0000      -0.745629       -20.2896
  34   2.0000      -0.722635       -19.6639
  35   2.0000      -0.697870       -18.9900
  36   2.0000      -0.659922       -17.9574
  37   2.0000      -0.640776       -17.4364
  38   2.0000      -0.630143       -17.1471
  39   2.0000      -0.616827       -16.7847
  40   2.0000      -0.591216       -16.0878
  41   2.0000      -0.571410       -15.5488
  42   2.0000      -0.562237       -15.2992
  43   2.0000      -0.543389       -14.7864
  44   2.0000      -0.517179       -14.0731
  45   2.0000      -0.513074       -13.9615
  46   2.0000      -0.509430       -13.8623
  47   2.0000      -0.506277       -13.7765
  48   2.0000      -0.503245       -13.6940
  49   2.0000      -0.490054       -13.3351
  50   2.0000      -0.484304       -13.1786
  51   2.0000      -0.480019       -13.0620
  52   2.0000      -0.473554       -12.8861
  53   2.0000      -0.458336       -12.4720
  54   2.0000      -0.452435       -12.3114
  55   2.0000      -0.450066       -12.2469
  56   2.0000      -0.443845       -12.0776
  57   2.0000      -0.435302       -11.8452
  58   2.0000      -0.429630       -11.6908
  59   2.0000      -0.424048       -11.5389
  60   2.0000      -0.420588       -11.4448
  61   2.0000      -0.399066       -10.8591
  62   2.0000      -0.396804       -10.7976
  63   2.0000      -0.394429       -10.7330
  64   2.0000      -0.391565       -10.6550
  65   2.0000      -0.384190       -10.4543
  66   2.0000      -0.378305       -10.2942
  67   2.0000      -0.365545        -9.9470
  68   2.0000      -0.354974        -9.6593
  69   2.0000      -0.348821        -9.4919
  70   2.0000      -0.332863        -9.0577
  71   2.0000      -0.326592        -8.8870
  72   2.0000      -0.311130        -8.4663
  73   2.0000      -0.287759        -7.8303
  74   2.0000      -0.282176        -7.6784
  75   2.0000      -0.281428        -7.6580
  76   2.0000      -0.262011        -7.1297
  77   2.0000      -0.251028        -6.8308
  78   0.0000      -0.089813        -2.4439
  79   0.0000      -0.054464        -1.4820
  80   0.0000      -0.017289        -0.4705
  81   0.0000      -0.010102        -0.2749
  82   0.0000      -0.003196        -0.0870

MULLIKEN ATOMIC CHARGES
-----------------------
   0 C :   -0.098785
   1 C :    0.035998
   2 C :   -0.118142
   3 C :   -0.152135
   4 C :    0.103087
   5 C :   -0.087637
   6 H :    0.102067
   7 H :    0.127560
   8 H :    0.123329
   9 C :   -0.081229
  10 H :    0.126308
  11 C :   -0.071963
  12 H :    0.126607
  13 C :    0.360932
  14 O :   -0.351287
  15 C :   -0.084414
  16 H :    0.124949
  17 H :    0.125935
  18 H :    0.127280
  19 O :   -0.427945
  20 C :    0.159139
  21 H :    0.113309
  22 C :    0.061734
  23 O :   -0.387824
  24 C :   -0.119674
  25 C :   -0.183284
  26 C :   -0.085033
  27 C :    0.116498
  28 C :   -0.076167
  29 H :    0.119326
  30 H :    0.121253
  31 H :    0.115383
  32 H :    0.131828
  33 O :   -0.367826
  34 C :   -0.080023
  35 H :    0.109334
  36 H :    0.132347
  37 H :    0.109162
Sum of atomic charges:    0.0000000

LOEWDIN ATOMIC CHARGES
----------------------
   0 C :    0.104063
   1 C :   -0.112546
   2 C :    0.099124
   3 C :    0.102345
   4 C :   -0.095171
   5 C :    0.104336
   6 H :   -0.041715
   7 H :   -0.048876
   8 H :   -0.042943
   9 C :    0.103501
  10 H :   -0.033995
  11 C :    0.075230
  12 H :   -0.044040
  13 C :   -0.741045
  14 O :    0.502196
  15 C :    0.099165
  16 H :   -0.065249
  17 H :   -0.061757
  18 H :   -0.061506
  19 O :    0.286965
  20 C :   -0.464571
  21 H :   -0.045465
  22 C :   -0.111576
  23 O :    0.319658
  24 C :    0.079955
  25 C :    0.070291
  26 C :    0.077292
  27 C :   -0.344632
  28 C :    0.103033
  29 H :   -0.045279
  30 H :   -0.054199
  31 H :   -0.050726
  32 H :   -0.050123
  33 O :    0.497948
  34 C :    0.075647
  35 H :   -0.061275
  36 H :   -0.062838
  37 H :   -0.061218

  Mayer bond orders larger than 0.100000
B(  0-C ,  1-C ) :   1.2813 B(  0-C ,  5-C ) :   1.3979 B(  0-C , 12-H ) :   0.9466
B(  1-C ,  2-C ) :   1.2978 B(  1-C , 13-C ) :   1.0262 B(  2-C ,  3-C ) :   1.3994
B(  2-C ,  7-H ) :   0.9466 B(  3-C ,  4-C ) :   1.3122 B(  3-C ,  8-H ) :   0.9525
B(  4-C ,  5-C ) :   1.2731 B(  4-C ,  9-C ) :   1.0081 B(  5-C ,  6-H ) :   0.9569
B(  9-C , 10-H ) :   0.9442 B(  9-C , 11-C ) :   1.6980 B( 11-C , 20-C ) :   1.0376
B( 11-C , 21-H ) :   0.9392 B( 13-C , 14-O ) :   1.1954 B( 13-C , 19-O ) :   1.8946
B( 14-O , 15-C ) :   0.8506 B( 15-C , 16-H ) :   0.9628 B( 15-C , 17-H ) :   0.9631
B( 15-C , 18-H ) :   0.9627 B( 20-C , 22-C ) :   1.0271 B( 20-C , 23-O ) :   1.8941
B( 22-C , 24-C ) :   1.2890 B( 22-C , 28-C ) :   1.3016 B( 24-C , 25-C ) :   1.4169
B( 24-C , 31-H ) :   0.9511 B( 25-C , 26-C ) :   1.3596 B( 25-C , 32-H ) :   0.9504
B( 26-C , 27-C ) :   1.3269 B( 26-C , 30-H ) :   0.9502 B( 27-C , 28-C ) :   1.3303
B( 27-C , 33-O ) :   1.1282 B( 28-C , 29-H ) :   0.9386 B( 33-O , 34-C ) :   0.8968
B( 34-C , 35-H ) :   0.9612 B( 34-C , 36-H ) :   0.9676 B( 34-C , 37-H ) :   0.9606

Dispersion correction           -0.023816738
FINAL SINGLE POINT ENERGY      -998.153231613247

DIPOLE MOMENT
-------------
                                X             Y             Z
Electronic contribution:      2.85377      -4.64175       0.66472
Nuclear contribution   :     -1.45160       6.28843      -1.63335
                        -----------------------------------------
Total Dipole Moment    :      1.40217       1.64668      -0.96862
                        -----------------------------------------
Magnitude (a.u.)       :      2.36978
Magnitude (Debye)      :      6.02351

Rotational constants in cm-1:     0.022568     0.003129     0.002879
Rotational constants in MHz :   676.557761    93.806753    86.324693

                             ****ORCA TERMINATED NORMALLY****
TOTAL RUN TIME: 0 days 0 hours 27 minutes 18 seconds 999 msec
