                         Program Version 5.0.2 -  RELEASE  -
|  1> ! PW6B95 D3BJ def2-QZVP RIJK def2/JK tightSCF CPCM(THF)
|  2> ! sp Pal4
|  3>
|  4> * xyz 0 1
|  5>   C   3.19892705049037     -1.58673630220273     -1.33576270284759
|  6>   C   2.91362169070000     -2.44994036110722     -2.40176874777509
|  7>   C   3.59973875493725     -3.66515204114405     -2.49320630797824
|  8>   C   4.56322919913713     -4.02185907816414     -1.55584577987595
|  9>   C   4.85144516009619     -3.15408900542900     -0.48546728846924
| 10>   C   4.15703091376393     -1.94590477230627     -0.38178956049207
| 11>   H   4.36754632671689     -1.27555161963416      0.44489782575740
| 12>   H   2.17113870195885     -2.19321490797253     -3.14859189313244
| 13>   H   3.36879875964132     -4.34023178834526     -3.31265771811456
| 14>   H   5.06578054849491     -4.97883624209327     -1.64259659692577
| 15>   C   5.86830717110002     -3.47264165730849      0.56924883692839
| 16>   O   2.59191250357188     -0.37444528901851     -1.14423238169989
| 17>   C   1.60272891704494      0.02583475357809     -2.10835221367358
| 18>   H   2.04517270748964      0.10640303631460     -3.10779000505748
| 19>   H   1.25263230732111      1.00279474158573     -1.77531699953468
| 20>   H   0.76872699746496     -0.68494822382526     -2.12761734075523
| 21>   C   6.85706742139212     -4.44600590032937      0.28769896920882
| 22>   O   5.79001803424404     -2.81938576964620      1.66651999924815
| 23>   C   7.88745738125054     -4.84306907065579      1.16599511023964
| 24>   H   6.84799182530551     -4.88925281179685     -0.69872239811071
| 25>   O   8.07094301208855     -4.36816923552688      2.34118569609888
| 26>   Li  6.97238524027079     -3.10576473598426      3.01066689472169
| 27>   C   8.87146554292599     -5.87686818802031      0.70498987171515
| 28>   C   8.60665579280666     -6.77075514184475     -0.34441639038856
| 29>   C   10.10413019967985     -5.96933419025688      1.37132761594492
| 30>   C   11.04963975349579     -6.91420132940404      0.99409105184826
| 31>   C   10.78964834440045     -7.78241449792202     -0.07544137102604
| 32>   C   9.55667258999598     -7.70784090215615     -0.73771437418245
| 33>   C   11.80045591780736     -8.83332525698148     -0.39789470116892
| 34>   O   12.15834294248399     -9.05001500019714     -1.68563881695407
| 35>   O   12.31381661041191     -9.52636879582339      0.46567248856605
| 36>   C   11.83493616428634     -8.09593890125928     -2.73753287259351
| 37>   H   10.90030239099484     -8.38621305159243     -3.22098428716521
| 38>   H   12.66174548912525     -8.16357496833002     -3.44483003469855
| 39>   H   11.76068771645336     -7.08498196820670     -2.33400947254747
| 40>   H   9.32466578005837     -8.40177957285452     -1.53938367621157
| 41>   H   7.64595398347402     -6.75595853705491     -0.84828659020158
| 42>   H   11.99769896564724     -6.98391985367898      1.51862187895288
| 43>   H   10.30340094437326     -5.28755698600510      2.19128686415009
| 44> *
| 45>
| 46>                          ****END OF INPUT****

CARTESIAN COORDINATES (ANGSTROEM)
---------------------------------
  C      3.198927   -1.586736   -1.335763
  C      2.913622   -2.449940   -2.401769
  C      3.599739   -3.665152   -2.493206
  C      4.563229   -4.021859   -1.555846
  C      4.851445   -3.154089   -0.485467
  C      4.157031   -1.945905   -0.381790
  H      4.367546   -1.275552    0.444898
  H      2.171139   -2.193215   -3.148592
  H      3.368799   -4.340232   -3.312658
  H      5.065781   -4.978836   -1.642597
  C      5.868307   -3.472642    0.569249
  O      2.591913   -0.374445   -1.144232
  C      1.602729    0.025835   -2.108352
  H      2.045173    0.106403   -3.107790
  H      1.252632    1.002795   -1.775317
  H      0.768727   -0.684948   -2.127617
  C      6.857067   -4.446006    0.287699
  O      5.790018   -2.819386    1.666520
  C      7.887457   -4.843069    1.165995
  H      6.847992   -4.889253   -0.698722
  O      8.070943   -4.368169    2.341186
  Li     6.972385   -3.105765    3.010667
  C      8.871466   -5.876868    0.704990
  C      8.606656   -6.770755   -0.344416
  C     10.104130   -5.969334    1.371328
  C     11.049640   -6.914201    0.994091
  C     10.789648   -7.782414   -0.075441
  C      9.556673   -7.707841   -0.737714
  C     11.800456   -8.833325   -0.397895
  O     12.158343   -9.050015   -1.685639
  O     12.313817   -9.526369    0.465672
  C     11.834936   -8.095939   -2.737533
  H     10.900302   -8.386213   -3.220984
  H     12.661745   -8.163575   -3.444830
  H     11.760688   -7.084982   -2.334009
  H      9.324666   -8.401780   -1.539384
  H      7.645954   -6.755959   -0.848287
  H     11.997699   -6.983920    1.518622
  H     10.303401   -5.287557    2.191287

 Total Charge           Charge          ....    0
 Multiplicity           Mult            ....    1
 Number of Electrons    NEL             ....  166
 Basis Dimension        Dim             .... 1796

ORBITAL ENERGIES
----------------

  NO   OCC          E(Eh)            E(eV)
   0   2.0000     -19.347946      -526.4844
   1   2.0000     -19.330012      -525.9964
   2   2.0000     -19.291664      -524.9529
   3   2.0000     -19.272349      -524.4273
   4   2.0000     -19.271747      -524.4109
   5   2.0000     -10.442363      -284.1511
   6   2.0000     -10.381752      -282.5018
   7   2.0000     -10.381410      -282.4925
   8   2.0000     -10.366935      -282.0986
   9   2.0000     -10.352918      -281.7172
  10   2.0000     -10.344609      -281.4911
  11   2.0000     -10.332395      -281.1588
  12   2.0000     -10.323663      -280.9211
  13   2.0000     -10.320621      -280.8384
  14   2.0000     -10.318188      -280.7722
  15   2.0000     -10.317183      -280.7448
  16   2.0000     -10.315984      -280.7122
  17   2.0000     -10.312596      -280.6200
  18   2.0000     -10.307969      -280.4941
  19   2.0000     -10.306154      -280.4447
  20   2.0000     -10.302708      -280.3509
  21   2.0000     -10.301924      -280.3296
  22   2.0000     -10.280065      -279.7348
  23   2.0000      -2.005407       -54.5699
  24   2.0000      -1.136050       -30.9135
  25   2.0000      -1.095285       -29.8042
  26   2.0000      -1.053927       -28.6788
  27   2.0000      -1.052913       -28.6512
  28   2.0000      -1.040033       -28.3007
  29   2.0000      -0.901124       -24.5208
  30   2.0000      -0.885844       -24.1050
  31   2.0000      -0.816982       -22.2312
  32   2.0000      -0.797347       -21.6969
  33   2.0000      -0.786647       -21.4058
  34   2.0000      -0.783893       -21.3308
  35   2.0000      -0.763246       -20.7690
  36   2.0000      -0.750758       -20.4292
  37   2.0000      -0.718994       -19.5648
  38   2.0000      -0.694000       -18.8847
  39   2.0000      -0.657906       -17.9025
  40   2.0000      -0.641275       -17.4500
  41   2.0000      -0.625463       -17.0197
  42   2.0000      -0.606698       -16.5091
  43   2.0000      -0.593162       -16.1408
  44   2.0000      -0.567532       -15.4433
  45   2.0000      -0.557879       -15.1807
  46   2.0000      -0.534682       -14.5494
  47   2.0000      -0.517818       -14.0906
  48   2.0000      -0.512501       -13.9459
  49   2.0000      -0.505830       -13.7643
  50   2.0000      -0.505365       -13.7517
  51   2.0000      -0.498084       -13.5536
  52   2.0000      -0.487613       -13.2686
  53   2.0000      -0.483749       -13.1635
  54   2.0000      -0.476402       -12.9636
  55   2.0000      -0.468812       -12.7570
  56   2.0000      -0.464655       -12.6439
  57   2.0000      -0.450107       -12.2480
  58   2.0000      -0.448709       -12.2100
  59   2.0000      -0.445140       -12.1129
  60   2.0000      -0.436850       -11.8873
  61   2.0000      -0.429707       -11.6929
  62   2.0000      -0.428118       -11.6497
  63   2.0000      -0.420950       -11.4546
  64   2.0000      -0.413295       -11.2463
  65   2.0000      -0.404911       -11.0182
  66   2.0000      -0.394658       -10.7392
  67   2.0000      -0.388095       -10.5606
  68   2.0000      -0.383142       -10.4258
  69   2.0000      -0.379927       -10.3383
  70   2.0000      -0.374770       -10.1980
  71   2.0000      -0.365411        -9.9433
  72   2.0000      -0.351063        -9.5529
  73   2.0000      -0.344274        -9.3682
  74   2.0000      -0.327612        -8.9148
  75   2.0000      -0.316586        -8.6147
  76   2.0000      -0.309125        -8.4117
  77   2.0000      -0.286284        -7.7902
  78   2.0000      -0.283848        -7.7239
  79   2.0000      -0.279905        -7.6166
  80   2.0000      -0.275847        -7.5062
  81   2.0000      -0.249696        -6.7946
  82   2.0000      -0.235831        -6.4173
  83   0.0000      -0.078236        -2.1289
  84   0.0000      -0.039746        -1.0816
  85   0.0000      -0.020666        -0.5624
  86   0.0000      -0.006283        -0.1710
  87   0.0000      -0.004709        -0.1281

MULLIKEN ATOMIC CHARGES
-----------------------
   0 C :    0.117780
   1 C :   -0.106414
   2 C :   -0.187439
   3 C :   -0.127532
   4 C :    0.100941
   5 C :   -0.070913
   6 H :    0.109374
   7 H :    0.118684
   8 H :    0.129381
   9 H :    0.117648
  10 C :    0.162446
  11 O :   -0.372473
  12 C :   -0.078935
  13 H :    0.107819
  14 H :    0.130541
  15 H :    0.107681
  16 C :   -0.208720
  17 O :   -0.388653
  18 C :    0.192823
  19 H :    0.069564
  20 O :   -0.405927
  21 Li:    0.424141
  22 C :    0.089300
  23 C :   -0.115203
  24 C :   -0.116702
  25 C :   -0.159779
  26 C :    0.030389
  27 C :   -0.108663
  28 C :    0.353478
  29 O :   -0.312018
  30 O :   -0.400740
  31 C :   -0.068984
  32 H :    0.129198
  33 H :    0.126387
  34 H :    0.110525
  35 H :    0.118914
  36 H :    0.130214
  37 H :    0.131810
  38 H :    0.120055
Sum of atomic charges:    0.0000000

LOEWDIN ATOMIC CHARGES
----------------------
   0 C :   -0.346660
   1 C :    0.066340
   2 C :    0.063441
   3 C :    0.076539
   4 C :   -0.086022
   5 C :    0.098943
   6 H :   -0.045342
   7 H :   -0.057089
   8 H :   -0.051655
   9 H :   -0.054089
  10 C :   -0.359433
  11 O :    0.494469
  12 C :    0.071474
  13 H :   -0.061740
  14 H :   -0.063600
  15 H :   -0.061766
  16 C :    0.065061
  17 O :    0.483786
  18 C :   -0.362935
  19 H :   -0.064955
  20 O :    0.482810
  21 Li:   -0.300910
  22 C :   -0.067278
  23 C :    0.103509
  24 C :    0.108481
  25 C :    0.100146
  26 C :   -0.120396
  27 C :    0.093108
  28 C :   -0.742849
  29 O :    0.501568
  30 O :    0.286184
  31 C :    0.112683
  32 H :   -0.064964
  33 H :   -0.062581
  34 H :   -0.061001
  35 H :   -0.042623
  36 H :   -0.045121
  37 H :   -0.041486
  38 H :   -0.044052

  Mayer bond orders larger than 0.100000
B(  0-C ,  1-C ) :   1.3377 B(  0-C ,  5-C ) :   1.3209 B(  0-C , 11-O ) :   1.1244
B(  1-C ,  2-C ) :   1.3524 B(  1-C ,  7-H ) :   0.9524 B(  2-C ,  3-C ) :   1.4264
B(  2-C ,  8-H ) :   0.9510 B(  3-C ,  4-C ) :   1.2843 B(  3-C ,  9-H ) :   0.9514
B(  4-C ,  5-C ) :   1.3142 B(  4-C , 10-C ) :   0.9530 B(  5-C ,  6-H ) :   0.9449
B( 10-C , 16-C ) :   1.2717 B( 10-C , 17-O ) :   1.5589 B( 11-O , 12-C ) :   0.9010
B( 12-C , 13-H ) :   0.9610 B( 12-C , 14-H ) :   0.9678 B( 12-C , 15-H ) :   0.9614
B( 16-C , 18-C ) :   1.2916 B( 16-C , 19-H ) :   0.9630 B( 17-O , 21-Li) :   0.4980
B( 18-C , 20-O ) :   1.5204 B( 18-C , 22-C ) :   0.9540 B( 20-O , 21-Li) :   0.5258
B( 22-C , 23-C ) :   1.2867 B( 22-C , 24-C ) :   1.2926 B( 23-C , 27-C ) :   1.4061
B( 23-C , 36-H ) :   0.9525 B( 24-C , 25-C ) :   1.3904 B( 24-C , 38-H ) :   0.9524
B( 25-C , 26-C ) :   1.3125 B( 25-C , 37-H ) :   0.9504 B( 26-C , 27-C ) :   1.2829
B( 26-C , 28-C ) :   0.9583 B( 27-C , 35-H ) :   0.9509 B( 28-C , 29-O ) :   1.2505
B( 28-C , 30-O ) :   1.9944 B( 29-O , 31-C ) :   0.8630 B( 31-C , 32-H ) :   0.9628
B( 31-C , 33-H ) :   0.9653 B( 31-C , 34-H ) :   0.9542

Dispersion correction           -0.025729794
FINAL SINGLE POINT ENERGY     -1080.545455506220

DIPOLE MOMENT
-------------
                                X             Y             Z
Electronic contribution:      7.09458      -1.10493      18.84886
Nuclear contribution   :     -8.93708       3.26439     -20.26766
                        -----------------------------------------
Total Dipole Moment    :     -1.84250       2.15946      -1.41880
                        -----------------------------------------
Magnitude (a.u.)       :      3.17350
Magnitude (Debye)      :      8.06640

Rotational constants in cm-1:     0.020123     0.002710     0.002442
Rotational constants in MHz :   603.282877    81.241528    73.195190

                             ****ORCA TERMINATED NORMALLY****
TOTAL RUN TIME: 0 days 1 hours 1 minutes 1 seconds 281 msec
