                         Program Version 5.0.2 -  RELEASE  -
|  1> ! TPSS D3BJ def2-TZVP RI def2/J CPCM(THF)
|  2> ! Opt numfreq Pal4
|  3>
|  4> * xyz 0 1
|  5> C         3.12261137633848   -1.64429902283903   -1.28680344581679
|  6> C         3.10217837118474   -2.21117176639674   -2.55676027824433
|  7> C         4.01405640643394   -3.20757782499520   -2.87025164118022
|  8> C         4.94340984625074   -3.64950949084645   -1.94995571960240
|  9> C         4.97558542092251   -3.09021727314351   -0.67026723523622
| 10> C         4.05902212848912   -2.09257078582106   -0.35840761325561
| 11> H         4.07184638131760   -1.65186150179527    0.62597406410564
| 12> H         2.39137258186824   -1.89185811522384   -3.30168608743992
| 13> H         3.99282042293148   -3.64378258002584   -3.85784359739595
| 14> H         5.63154789622944   -4.42617552416514   -2.23728436226995
| 15> C         5.93598645828659   -3.49063391910016    0.39848488985162
| 16> O         2.28542893702524   -0.66059082512593   -0.85537993500032
| 17> C         1.32870035229714   -0.13974481108049   -1.75656014440308
| 18> H         1.80956447488891    0.30594690550021   -2.63228946459673
| 19> H         0.79897156121652    0.63155435029816   -1.20081229491657
| 20> H         0.62108344517879   -0.91067085946092   -2.07601442875263
| 21> C         6.92139143757565   -4.45351782228923    0.13913531106751
| 22> O         5.81852850321702   -2.92244322255634    1.52459175283494
| 23> C         7.86809012287017   -4.84429867099779    1.08783317238561
| 24> H         6.98400708661493   -4.89662987960429   -0.83790088708821
| 25> O         7.95931969536939   -4.36946735553455    2.25784121782401
| 26> Li        6.85407239342838   -3.18478987279504    2.89668654757085
| 27> C         8.87290621620347   -5.87552066892669    0.69343750555499
| 28> C         8.54636957356245   -6.95835811204751   -0.11932182346107
| 29> C        10.17001527155490   -5.77093860387293    1.19188337556986
| 30> C        11.13018635225259   -6.70617248375816    0.86081518873868
| 31> C        10.80891450762669   -7.76624582034667    0.01631831318879
| 32> C         9.50511834307947   -7.89582069193442   -0.45610825150746
| 33> C        11.85215927565325   -8.79724090190134   -0.26460846037589
| 34> O        12.17059799677313   -9.09182253072566   -1.52627618788246
| 35> O        12.42742362933457   -9.37647338061946    0.62947075762622
| 36> C        11.64041757005184   -8.37321109110801   -2.63663423684416
| 37> H        10.77137228035662   -8.89958045396402   -3.03453777408412
| 38> H        12.43136243735660   -8.36270421501007   -3.38525065771814
| 39> H        11.36665571193406   -7.35394085567343   -2.36344295381323
| 40> H         9.23252470186647   -8.74453961231292   -1.06499729914523
| 41> H         7.53399740536736   -7.08257144536809   -0.46992382799391
| 42> H        12.13396714140900   -6.62701496379786    1.24959633632316
| 43> H        10.40923603858433   -4.94474772323438    1.84360275718257
| 44> *
| 45>
| 46>                          ****END OF INPUT****
 Total Charge           Charge          ....    0
 Multiplicity           Mult            ....    1
 Number of Electrons    NEL             ....  166
Dispersion correction           -0.061588649
FINAL SINGLE POINT ENERGY     -1079.333835794000
Dispersion correction            ... done
Dispersion correction           -0.061382148
FINAL SINGLE POINT ENERGY     -1079.337842489393
Dispersion correction            ... done
Dispersion correction           -0.061371984
FINAL SINGLE POINT ENERGY     -1079.338930900164
Dispersion correction            ... done
FINAL SINGLE POINT ENERGY     -1079.339315138461
FINAL SINGLE POINT ENERGY     -1079.339796961061
FINAL SINGLE POINT ENERGY     -1079.339958374420
FINAL SINGLE POINT ENERGY     -1079.340058530209
FINAL SINGLE POINT ENERGY     -1079.340099768956
FINAL SINGLE POINT ENERGY     -1079.340136037887
FINAL SINGLE POINT ENERGY     -1079.340155134872
FINAL SINGLE POINT ENERGY     -1079.340169046312
FINAL SINGLE POINT ENERGY     -1079.340182238761
FINAL SINGLE POINT ENERGY     -1079.340194300192
FINAL SINGLE POINT ENERGY     -1079.340207194437
FINAL SINGLE POINT ENERGY     -1079.340214546127
Dispersion correction            ... done
Dispersion correction           -0.061488206
FINAL SINGLE POINT ENERGY     -1079.340222340482
Dispersion correction            ... done
Dispersion correction           -0.061483782
FINAL SINGLE POINT ENERGY     -1079.340223697856
Dispersion correction            ... done
                    ***********************HURRAY********************

CARTESIAN COORDINATES (ANGSTROEM)
---------------------------------
  C      3.198927   -1.586736   -1.335763
  C      2.913622   -2.449940   -2.401769
  C      3.599739   -3.665152   -2.493206
  C      4.563229   -4.021859   -1.555846
  C      4.851445   -3.154089   -0.485467
  C      4.157031   -1.945905   -0.381790
  H      4.367546   -1.275552    0.444898
  H      2.171139   -2.193215   -3.148592
  H      3.368799   -4.340232   -3.312658
  H      5.065781   -4.978836   -1.642597
  C      5.868307   -3.472642    0.569249
  O      2.591913   -0.374445   -1.144232
  C      1.602729    0.025835   -2.108352
  H      2.045173    0.106403   -3.107790
  H      1.252632    1.002795   -1.775317
  H      0.768727   -0.684948   -2.127617
  C      6.857067   -4.446006    0.287699
  O      5.790018   -2.819386    1.666520
  C      7.887457   -4.843069    1.165995
  H      6.847992   -4.889253   -0.698722
  O      8.070943   -4.368169    2.341186
  Li     6.972385   -3.105765    3.010667
  C      8.871466   -5.876868    0.704990
  C      8.606656   -6.770755   -0.344416
  C     10.104130   -5.969334    1.371328
  C     11.049640   -6.914201    0.994091
  C     10.789648   -7.782414   -0.075441
  C      9.556673   -7.707841   -0.737714
  C     11.800456   -8.833325   -0.397895
  O     12.158343   -9.050015   -1.685639
  O     12.313817   -9.526369    0.465672
  C     11.834936   -8.095939   -2.737533
  H     10.900302   -8.386213   -3.220984
  H     12.661745   -8.163575   -3.444830
  H     11.760688   -7.084982   -2.334009
  H      9.324666   -8.401780   -1.539384
  H      7.645954   -6.755959   -0.848287
  H     11.997699   -6.983920    1.518622
  H     10.303401   -5.287557    2.191287

 Multiplicity           Mult            ....    1
 Number of Electrons    NEL             ....  166
 Basis Dimension        Dim             ....  817

ORBITAL ENERGIES
----------------

  NO   OCC          E(Eh)            E(eV)
   0   2.0000     -18.931708      -515.1580
   1   2.0000     -18.916367      -514.7405
   2   2.0000     -18.875145      -513.6188
   3   2.0000     -18.859499      -513.1931
   4   2.0000     -18.859442      -513.1915
   5   2.0000     -10.117347      -275.3070
   6   2.0000     -10.059497      -273.7328
   7   2.0000     -10.059181      -273.7242
   8   2.0000     -10.049003      -273.4473
   9   2.0000     -10.042742      -273.2769
  10   2.0000     -10.035675      -273.0846
  11   2.0000     -10.015419      -272.5334
  12   2.0000     -10.006680      -272.2956
  13   2.0000     -10.005602      -272.2663
  14   2.0000     -10.003266      -272.2027
  15   2.0000     -10.002427      -272.1799
  16   2.0000      -9.999333      -272.0957
  17   2.0000      -9.997769      -272.0531
  18   2.0000      -9.993637      -271.9407
  19   2.0000      -9.992209      -271.9018
  20   2.0000      -9.988323      -271.7961
  21   2.0000      -9.987668      -271.7783
  22   2.0000      -9.969728      -271.2901
  23   2.0000      -1.866570       -50.7920
  24   2.0000      -1.030477       -28.0407
  25   2.0000      -0.994849       -27.0712
  26   2.0000      -0.951696       -25.8970
  27   2.0000      -0.951278       -25.8856
  28   2.0000      -0.938905       -25.5489
  29   2.0000      -0.811288       -22.0763
  30   2.0000      -0.796941       -21.6859
  31   2.0000      -0.731554       -19.9066
  32   2.0000      -0.713418       -19.4131
  33   2.0000      -0.704214       -19.1626
  34   2.0000      -0.702238       -19.1089
  35   2.0000      -0.681699       -18.5500
  36   2.0000      -0.672437       -18.2979
  37   2.0000      -0.642855       -17.4930
  38   2.0000      -0.615882       -16.7590
  39   2.0000      -0.583069       -15.8661
  40   2.0000      -0.568550       -15.4710
  41   2.0000      -0.553284       -15.0556
  42   2.0000      -0.534364       -14.5408
  43   2.0000      -0.523363       -14.2414
  44   2.0000      -0.499824       -13.6009
  45   2.0000      -0.490422       -13.3451
  46   2.0000      -0.466928       -12.7058
  47   2.0000      -0.450622       -12.2620
  48   2.0000      -0.444142       -12.0857
  49   2.0000      -0.441170       -12.0048
  50   2.0000      -0.435691       -11.8557
  51   2.0000      -0.431589       -11.7441
  52   2.0000      -0.422335       -11.4923
  53   2.0000      -0.418756       -11.3949
  54   2.0000      -0.412528       -11.2255
  55   2.0000      -0.404620       -11.0103
  56   2.0000      -0.399009       -10.8576
  57   2.0000      -0.389928       -10.6105
  58   2.0000      -0.388573       -10.5736
  59   2.0000      -0.381195       -10.3729
  60   2.0000      -0.374834       -10.1998
  61   2.0000      -0.368663       -10.0318
  62   2.0000      -0.368428       -10.0254
  63   2.0000      -0.360456        -9.8085
  64   2.0000      -0.354655        -9.6507
  65   2.0000      -0.344315        -9.3693
  66   2.0000      -0.337690        -9.1890
  67   2.0000      -0.328881        -8.9493
  68   2.0000      -0.326080        -8.8731
  69   2.0000      -0.321765        -8.7557
  70   2.0000      -0.315035        -8.5725
  71   2.0000      -0.305783        -8.3208
  72   2.0000      -0.292264        -7.9529
  73   2.0000      -0.287886        -7.8338
  74   2.0000      -0.267753        -7.2859
  75   2.0000      -0.256080        -6.9683
  76   2.0000      -0.245700        -6.6858
  77   2.0000      -0.242673        -6.6035
  78   2.0000      -0.234615        -6.3842
  79   2.0000      -0.234258        -6.3745
  80   2.0000      -0.214521        -5.8374
  81   2.0000      -0.205535        -5.5929
  82   2.0000      -0.195127        -5.3097
  83   0.0000      -0.100691        -2.7400
  84   0.0000      -0.066322        -1.8047
  85   0.0000      -0.047669        -1.2971
  86   0.0000      -0.032007        -0.8709
  87   0.0000      -0.026557        -0.7227

MULLIKEN ATOMIC CHARGES
-----------------------
   0 C :    0.337299
   1 C :   -0.254262
   2 C :   -0.152417
   3 C :   -0.223007
   4 C :    0.170981
   5 C :   -0.315288
   6 H :    0.107123
   7 H :    0.142610
   8 H :    0.128732
   9 H :    0.131889
  10 C :    0.362263
  11 O :   -0.255321
  12 C :   -0.229182
  13 H :    0.141999
  14 H :    0.154189
  15 H :    0.142030
  16 C :   -0.371325
  17 O :   -0.658429
  18 C :    0.354445
  19 H :    0.146406
  20 O :   -0.663189
  21 Li:    0.802746
  22 C :    0.149765
  23 C :   -0.183123
  24 C :   -0.182679
  25 C :   -0.184525
  26 C :    0.067420
  27 C :   -0.170374
  28 C :    0.268676
  29 O :   -0.196769
  30 O :   -0.348450
  31 C :   -0.238238
  32 H :    0.148709
  33 H :    0.160406
  34 H :    0.164738
  35 H :    0.143920
  36 H :    0.139560
  37 H :    0.132385
  38 H :    0.128285
Sum of atomic charges:   -0.0000000

LOEWDIN ATOMIC CHARGES
----------------------
   0 C :   -0.254221
   1 C :   -0.132459
   2 C :   -0.140821
   3 C :   -0.120049
   4 C :   -0.112326
   5 C :   -0.075022
   6 H :    0.154757
   7 H :    0.153400
   8 H :    0.149360
   9 H :    0.149642
  10 C :   -0.281958
  11 O :    0.221955
  12 C :   -0.308728
  13 H :    0.112506
  14 H :    0.117292
  15 H :    0.112462
  16 C :   -0.163881
  17 O :   -0.016727
  18 C :   -0.287924
  19 H :    0.152313
  20 O :   -0.020022
  21 Li:    0.593352
  22 C :   -0.095681
  23 C :   -0.088554
  24 C :   -0.083158
  25 C :   -0.085071
  26 C :   -0.129985
  27 C :   -0.093531
  28 C :   -0.444468
  29 O :    0.242889
  30 O :    0.077739
  31 C :   -0.282264
  32 H :    0.113859
  33 H :    0.118839
  34 H :    0.120930
  35 H :    0.157916
  36 H :    0.155354
  37 H :    0.157111
  38 H :    0.155174

  Mayer bond orders larger than 0.100000
B(  0-C ,  1-C ) :   1.2777 B(  0-C ,  5-C ) :   1.3287 B(  0-C , 11-O ) :   1.1439
B(  1-C ,  2-C ) :   1.3575 B(  1-C ,  7-H ) :   0.9601 B(  2-C ,  3-C ) :   1.4485
B(  2-C ,  8-H ) :   0.9684 B(  3-C ,  4-C ) :   1.3204 B(  3-C ,  9-H ) :   0.9598
B(  4-C ,  5-C ) :   1.3509 B(  4-C , 10-C ) :   1.0300 B(  4-C , 17-O ) :  -0.1011
B(  5-C ,  6-H ) :   1.0091 B( 10-C , 16-C ) :   1.3157 B( 10-C , 17-O ) :   1.4410
B( 11-O , 12-C ) :   0.9388 B( 12-C , 13-H ) :   0.9573 B( 12-C , 14-H ) :   0.9624
B( 12-C , 15-H ) :   0.9574 B( 16-C , 18-C ) :   1.3374 B( 16-C , 19-H ) :   0.8828
B( 17-O , 21-Li) :   0.1921 B( 18-C , 20-O ) :   1.4283 B( 18-C , 22-C ) :   1.0225
B( 20-O , 21-Li) :   0.1946 B( 20-O , 22-C ) :  -0.1006 B( 22-C , 23-C ) :   1.3428
B( 22-C , 24-C ) :   1.3143 B( 23-C , 27-C ) :   1.4441 B( 23-C , 36-H ) :   0.9608
B( 24-C , 25-C ) :   1.4250 B( 24-C , 38-H ) :   0.9765 B( 25-C , 26-C ) :   1.3174
B( 25-C , 37-H ) :   0.9935 B( 26-C , 27-C ) :   1.2997 B( 26-C , 28-C ) :   0.9093
B( 27-C , 35-H ) :   0.9715 B( 28-C , 29-O ) :   1.2609 B( 28-C , 30-O ) :   2.0562
B( 29-O , 31-C ) :   0.9010 B( 31-C , 32-H ) :   0.9591 B( 31-C , 33-H ) :   0.9581
B( 31-C , 34-H ) :   0.9570

Dispersion correction           -0.061482448
FINAL SINGLE POINT ENERGY     -1079.340224586049

DIPOLE MOMENT
-------------
                                X             Y             Z
Electronic contribution:      7.12186      -1.07446      18.97657
Nuclear contribution   :     -8.93708       3.26439     -20.26766
                        -----------------------------------------
Total Dipole Moment    :     -1.81522       2.18993      -1.29110
                        -----------------------------------------
Magnitude (a.u.)       :      3.12374
Magnitude (Debye)      :      7.93992

VIBRATIONAL FREQUENCIES
-----------------------

Scaling factor for frequencies =  1.000000000 (already applied!)

   0:         0.00 cm**-1
   1:         0.00 cm**-1
   2:         0.00 cm**-1
   3:         0.00 cm**-1
   4:         0.00 cm**-1
   5:         0.00 cm**-1
   6:        11.73 cm**-1
   7:        13.77 cm**-1
   8:        32.16 cm**-1
   9:        46.73 cm**-1
  10:        55.07 cm**-1
  11:        69.12 cm**-1
  12:        89.70 cm**-1
  13:        98.81 cm**-1
  14:       116.68 cm**-1
  15:       131.57 cm**-1
  16:       162.99 cm**-1
  17:       167.08 cm**-1
  18:       171.70 cm**-1
  19:       175.73 cm**-1
  20:       199.16 cm**-1
  21:       208.18 cm**-1
  22:       232.60 cm**-1
  23:       256.47 cm**-1
  24:       262.06 cm**-1
  25:       268.61 cm**-1
  26:       307.10 cm**-1
  27:       321.37 cm**-1
  28:       371.50 cm**-1
  29:       399.10 cm**-1
  30:       404.57 cm**-1
  31:       436.64 cm**-1
  32:       443.05 cm**-1
  33:       457.35 cm**-1
  34:       486.95 cm**-1
  35:       546.72 cm**-1
  36:       555.71 cm**-1
  37:       559.18 cm**-1
  38:       574.35 cm**-1
  39:       591.35 cm**-1
  40:       625.47 cm**-1
  41:       644.48 cm**-1
  42:       653.94 cm**-1
  43:       678.03 cm**-1
  44:       697.35 cm**-1
  45:       707.58 cm**-1
  46:       716.97 cm**-1
  47:       743.19 cm**-1
  48:       768.02 cm**-1
  49:       774.09 cm**-1
  50:       785.12 cm**-1
  51:       803.93 cm**-1
  52:       848.56 cm**-1
  53:       860.45 cm**-1
  54:       869.67 cm**-1
  55:       875.90 cm**-1
  56:       898.58 cm**-1
  57:       938.31 cm**-1
  58:       955.81 cm**-1
  59:       974.62 cm**-1
  60:       976.84 cm**-1
  61:       983.28 cm**-1
  62:       991.72 cm**-1
  63:      1017.64 cm**-1
  64:      1022.74 cm**-1
  65:      1055.26 cm**-1
  66:      1073.82 cm**-1
  67:      1099.53 cm**-1
  68:      1114.98 cm**-1
  69:      1117.83 cm**-1
  70:      1148.83 cm**-1
  71:      1149.07 cm**-1
  72:      1176.27 cm**-1
  73:      1178.24 cm**-1
  74:      1181.14 cm**-1
  75:      1191.91 cm**-1
  76:      1207.00 cm**-1
  77:      1241.54 cm**-1
  78:      1256.75 cm**-1
  79:      1275.00 cm**-1
  80:      1289.32 cm**-1
  81:      1316.93 cm**-1
  82:      1331.50 cm**-1
  83:      1352.56 cm**-1
  84:      1395.66 cm**-1
  85:      1417.65 cm**-1
  86:      1441.87 cm**-1
  87:      1455.37 cm**-1
  88:      1458.75 cm**-1
  89:      1471.62 cm**-1
  90:      1474.77 cm**-1
  91:      1487.15 cm**-1
  92:      1488.69 cm**-1
  93:      1490.80 cm**-1
  94:      1504.31 cm**-1
  95:      1512.57 cm**-1
  96:      1532.38 cm**-1
  97:      1572.79 cm**-1
  98:      1581.97 cm**-1
  99:      1605.57 cm**-1
 100:      1609.98 cm**-1
 101:      1681.81 cm**-1
 102:      2985.59 cm**-1
 103:      3025.05 cm**-1
 104:      3048.62 cm**-1
 105:      3109.47 cm**-1
 106:      3113.72 cm**-1
 107:      3120.43 cm**-1
 108:      3138.31 cm**-1
 109:      3151.55 cm**-1
 110:      3152.97 cm**-1
 111:      3162.73 cm**-1
 112:      3164.77 cm**-1
 113:      3166.73 cm**-1
 114:      3170.32 cm**-1
 115:      3174.92 cm**-1
 116:      3194.59 cm**-1

IR SPECTRUM
-----------

 Mode   freq       eps      Int      T**2         TX        TY        TZ
       cm**-1   L/(mol*cm) km/mol    a.u.
----------------------------------------------------------------------------
  6:     11.73   0.000142    0.72  0.003766  (-0.051515 -0.032784  0.006121)
  7:     13.77   0.000859    4.34  0.019469  (-0.108844 -0.081769 -0.030588)
  8:     32.16   0.000086    0.43  0.000831  ( 0.003810 -0.022589 -0.017496)
  9:     46.73   0.000317    1.60  0.002116  ( 0.033663 -0.020082 -0.024082)
 10:     55.07   0.001210    6.11  0.006856  ( 0.075755  0.033219 -0.003754)
 11:     69.12   0.001073    5.42  0.004846  (-0.026876 -0.046891  0.043877)
 12:     89.70   0.000883    4.46  0.003074  ( 0.040003  0.003451 -0.038231)
 13:     98.81   0.000895    4.52  0.002826  (-0.036649  0.003116  0.038376)
 14:    116.68   0.001520    7.68  0.004065  ( 0.030208  0.049261  0.026946)
 15:    131.57   0.000194    0.98  0.000459  ( 0.011263 -0.003561 -0.017877)
 16:    162.99   0.000619    3.13  0.001186  ( 0.020729  0.002031 -0.027428)
 17:    167.08   0.005112   25.83  0.009547  (-0.047034 -0.080906  0.028090)
 18:    171.70   0.000748    3.78  0.001359  (-0.031030 -0.017373  0.009736)
 19:    175.73   0.013734   69.40  0.024388  ( 0.101844  0.105268 -0.054171)
 20:    199.16   0.000487    2.46  0.000763  (-0.010119 -0.022949  0.011573)
 21:    208.18   0.000706    3.57  0.001058  ( 0.023307  0.016948 -0.015074)
 22:    232.60   0.000803    4.06  0.001078  ( 0.008790 -0.025719  0.018418)
 23:    256.47   0.000347    1.76  0.000423  (-0.008095 -0.012078 -0.014534)
 24:    262.06   0.000199    1.01  0.000237  ( 0.014039 -0.003318 -0.005385)
 25:    268.61   0.000143    0.72  0.000166  (-0.001975 -0.000421  0.012719)
 26:    307.10   0.002029   10.25  0.002061  (-0.000083 -0.034779 -0.029187)
 27:    321.37   0.001329    6.72  0.001291  ( 0.000791 -0.012070 -0.033826)
 28:    371.50   0.006145   31.06  0.005162  (-0.027369  0.040200  0.052885)
 29:    399.10   0.009328   47.14  0.007294  (-0.068219  0.039445 -0.032927)
 30:    404.57   0.000618    3.12  0.000477  (-0.006904  0.008932  0.018695)
 31:    436.64   0.000991    5.01  0.000709  ( 0.017041 -0.008599  0.018553)
 32:    443.05   0.001568    7.92  0.001104  ( 0.026483  0.008095  0.018369)
 33:    457.35   0.004028   20.36  0.002748  ( 0.015743 -0.008848 -0.049217)
 34:    486.95   0.005707   28.84  0.003657  (-0.042900  0.038832 -0.017575)
 35:    546.72   0.003088   15.61  0.001763  ( 0.040260 -0.005933  0.010329)
 36:    555.71   0.002833   14.32  0.001591  ( 0.019317 -0.005295 -0.034493)
 37:    559.18   0.007988   40.37  0.004458  ( 0.016343  0.023532  0.060308)
 38:    574.35   0.012794   64.66  0.006952  ( 0.025026 -0.058889 -0.053455)
 39:    591.35   0.018396   92.96  0.009708  ( 0.004469 -0.033442 -0.092571)
 40:    625.47   0.000698    3.53  0.000348  (-0.000872  0.012484  0.013847)
 41:    644.48   0.002783   14.06  0.001347  ( 0.015921 -0.032924 -0.003154)
 42:    653.94   0.012141   61.35  0.005794  (-0.060694  0.033091 -0.031857)
 43:    678.03   0.004677   23.64  0.002153  ( 0.020836  0.027813 -0.030741)
 44:    697.35   0.001095    5.53  0.000490  (-0.021155 -0.001908  0.006226)
 45:    707.58   0.010663   53.88  0.004702  ( 0.037793 -0.055513  0.013872)
 46:    716.97   0.010397   52.54  0.004525  ( 0.064675 -0.007425 -0.016955)
 47:    743.19   0.012869   65.04  0.005404  ( 0.055315  0.031168 -0.037047)
 48:    768.02   0.008780   44.37  0.003567  ( 0.015948 -0.057057  0.007580)
 49:    774.09   0.014493   73.24  0.005843  (-0.066270 -0.023447  0.030020)
 50:    785.12   0.004487   22.68  0.001784  ( 0.022080  0.025094 -0.025814)
 51:    803.93   0.004911   24.82  0.001906  ( 0.019608  0.032534 -0.021523)
 52:    848.56   0.000421    2.13  0.000155  (-0.001493 -0.003971  0.011704)
 53:    860.45   0.000923    4.67  0.000335  (-0.006156 -0.004973 -0.016498)
 54:    869.67   0.007417   37.48  0.002662  (-0.011484 -0.030519  0.039978)
 55:    875.90   0.001520    7.68  0.000541  (-0.004826 -0.015280  0.016872)
 56:    898.58   0.003326   16.81  0.001155  ( 0.015456  0.014652 -0.026488)
 57:    938.31   0.000996    5.03  0.000331  ( 0.005332 -0.000085  0.017402)
 58:    955.81   0.000074    0.37  0.000024  (-0.004599  0.000917 -0.001470)
 59:    974.62   0.001234    6.24  0.000395  ( 0.010012 -0.014917 -0.008507)
 60:    976.84   0.010364   52.38  0.003311  ( 0.039151 -0.039972 -0.013430)
 61:    983.28   0.016305   82.40  0.005175  ( 0.043750 -0.056876 -0.005073)
 62:    991.72   0.000956    4.83  0.000301  ( 0.006676  0.004670  0.015308)
 63:   1017.64   0.009998   50.52  0.003066  (-0.017585  0.010535 -0.051435)
 64:   1022.74   0.030615  154.71  0.009341  ( 0.075733 -0.041699  0.043209)
 65:   1055.26   0.002745   13.87  0.000812  ( 0.012562 -0.024039  0.008723)
 66:   1073.82   0.061838  312.50  0.017971  ( 0.033745 -0.005230 -0.129632)
 67:   1099.53   0.003600   18.20  0.001022  ( 0.009874 -0.024502 -0.018001)
 68:   1114.98   0.009416   47.59  0.002635  ( 0.042353 -0.028894 -0.002594)
 69:   1117.83   0.002979   15.06  0.000832  (-0.005823 -0.018778 -0.021101)
 70:   1148.83   0.000261    1.32  0.000071  ( 0.006760  0.003071 -0.003968)
 71:   1149.07   0.000421    2.13  0.000114  (-0.006686 -0.002917 -0.007810)
 72:   1176.27   0.002561   12.94  0.000679  ( 0.007093 -0.024466 -0.005524)
 73:   1178.24   0.003734   18.87  0.000989  ( 0.020046 -0.024075  0.002769)
 74:   1181.14   0.006430   32.49  0.001699  (-0.025544  0.032137 -0.003675)
 75:   1191.91   0.001434    7.24  0.000375  (-0.003776  0.018833  0.002531)
 76:   1207.00   0.009303   47.01  0.002405  ( 0.003861 -0.036374 -0.032669)
 77:   1241.54   0.088574  447.62  0.022263  (-0.095104  0.114293 -0.012476)
 78:   1256.75   0.131415  664.12  0.032632  ( 0.099682 -0.069625 -0.133595)
 79:   1275.00   0.039988  202.08  0.009787  (-0.058299  0.035252 -0.071733)
 80:   1289.32   0.003141   15.87  0.000760  ( 0.013166 -0.021490  0.011183)
 81:   1316.93   0.005721   28.91  0.001356  ( 0.027493 -0.013160  0.020655)
 82:   1331.50   0.008381   42.36  0.001964  ( 0.034763 -0.005257  0.026987)
 83:   1352.56   0.014917   75.38  0.003442  ( 0.042044 -0.018272  0.036606)
 84:   1395.66   0.106895  540.20  0.023901  (-0.120332  0.093635 -0.025577)
 85:   1417.65   0.055932  282.66  0.012312  (-0.093299  0.059982 -0.003113)
 86:   1441.87   0.105280  532.04  0.022786  ( 0.115086 -0.081164  0.054344)
 87:   1455.37   0.004522   22.85  0.000970  (-0.009564 -0.007773 -0.028597)
 88:   1458.75   0.002947   14.89  0.000631  ( 0.020030 -0.012356 -0.008753)
 89:   1471.62   0.006913   34.94  0.001466  (-0.032352  0.002736  0.020293)
 90:   1474.77   0.001762    8.91  0.000373  ( 0.012739  0.010023 -0.010495)
 91:   1487.15   0.035533  179.57  0.007456  (-0.056471  0.065274 -0.002592)
 92:   1488.69   0.065362  330.31  0.013701  ( 0.086241 -0.073252  0.029966)
 93:   1490.80   0.006302   31.85  0.001319  (-0.021139  0.005891 -0.028941)
 94:   1504.31   0.069307  350.25  0.014377  (-0.091273  0.039054 -0.067242)
 95:   1512.57   0.153910  777.80  0.031754  (-0.131923  0.118468  0.017758)
 96:   1532.38   0.111978  565.89  0.022804  (-0.017791 -0.067161 -0.134077)
 97:   1572.79   0.018703   94.52  0.003711  ( 0.011029  0.027741  0.053101)
 98:   1581.97   0.014679   74.18  0.002896  (-0.027079  0.030671 -0.034952)
 99:   1605.57   0.005950   30.07  0.001156  ( 0.019320 -0.021407  0.018026)
100:   1609.98   0.002249   11.37  0.000436  (-0.014341  0.014137  0.005523)
101:   1681.81   0.130101  657.48  0.024140  (-0.076793  0.099107 -0.091767)
102:   2985.59   0.013601   68.73  0.001422  ( 0.026379 -0.012721  0.023746)
103:   3025.05   0.006062   30.63  0.000625  (-0.004001  0.011015 -0.022091)
104:   3048.62   0.009998   50.53  0.001023  ( 0.022587  0.014520 -0.017391)
105:   3109.47   0.004442   22.45  0.000446  ( 0.018602  0.009477  0.003160)
106:   3113.72   0.004975   25.14  0.000499  (-0.007231  0.019926  0.007021)
107:   3120.43   0.003909   19.76  0.000391  (-0.008883  0.010955  0.013858)
108:   3138.31   0.002473   12.50  0.000246  ( 0.005846  0.007806  0.012279)
109:   3151.55   0.001680    8.49  0.000166  (-0.009710  0.008145  0.002389)
110:   3152.97   0.000505    2.55  0.000050  ( 0.003608  0.002387  0.005595)
111:   3162.73   0.003292   16.64  0.000325  ( 0.005239 -0.016790 -0.003936)
112:   3164.77   0.000951    4.81  0.000094  (-0.006950  0.003866 -0.005526)
113:   3166.73   0.002303   11.64  0.000227  (-0.010387 -0.004631 -0.009882)
114:   3170.32   0.001598    8.08  0.000157  ( 0.010535 -0.001676  0.006595)
115:   3174.92   0.001513    7.65  0.000149  ( 0.008832 -0.002565  0.008007)
116:   3194.59   0.000972    4.91  0.000095  ( 0.000855 -0.005543 -0.007968)

--------------------------
THERMOCHEMISTRY AT 298.15K
--------------------------

Temperature         ... 298.15 K
Pressure            ... 1.00 atm
Total Mass          ... 318.25 AMU

Throughout the following assumptions are being made:
  (1) The electronic state is orbitally nondegenerate
  (2) There are no thermally accessible electronically excited states
  (3) Hindered rotations indicated by low frequency modes are not
      treated as such but are treated as vibrations and this may
      cause some error
  (4) All equations used are the standard statistical mechanics
      equations for an ideal gas
  (5) All vibrations are strictly harmonic

freq.      11.73  E(vib)   ...       0.58
freq.      13.77  E(vib)   ...       0.57
freq.      32.16  E(vib)   ...       0.55
freq.      46.73  E(vib)   ...       0.53
freq.      55.07  E(vib)   ...       0.52
freq.      69.12  E(vib)   ...       0.50
freq.      89.70  E(vib)   ...       0.47
freq.      98.81  E(vib)   ...       0.46
freq.     116.68  E(vib)   ...       0.44
freq.     131.57  E(vib)   ...       0.42
freq.     162.99  E(vib)   ...       0.39
freq.     167.08  E(vib)   ...       0.39
freq.     171.70  E(vib)   ...       0.38
freq.     175.73  E(vib)   ...       0.38
freq.     199.16  E(vib)   ...       0.35
freq.     208.18  E(vib)   ...       0.34
freq.     232.60  E(vib)   ...       0.32
freq.     256.47  E(vib)   ...       0.30
freq.     262.06  E(vib)   ...       0.29
freq.     268.61  E(vib)   ...       0.29
freq.     307.10  E(vib)   ...       0.26
freq.     321.37  E(vib)   ...       0.25
freq.     371.50  E(vib)   ...       0.21
freq.     399.10  E(vib)   ...       0.19
freq.     404.57  E(vib)   ...       0.19
freq.     436.64  E(vib)   ...       0.17
freq.     443.05  E(vib)   ...       0.17
freq.     457.35  E(vib)   ...       0.16
freq.     486.95  E(vib)   ...       0.15
freq.     546.72  E(vib)   ...       0.12
freq.     555.71  E(vib)   ...       0.12
freq.     559.18  E(vib)   ...       0.12
freq.     574.35  E(vib)   ...       0.11
freq.     591.35  E(vib)   ...       0.10
freq.     625.47  E(vib)   ...       0.09
freq.     644.48  E(vib)   ...       0.09
freq.     653.94  E(vib)   ...       0.08
freq.     678.03  E(vib)   ...       0.08
freq.     697.35  E(vib)   ...       0.07
freq.     707.58  E(vib)   ...       0.07
freq.     716.97  E(vib)   ...       0.07
freq.     743.19  E(vib)   ...       0.06
freq.     768.02  E(vib)   ...       0.06
freq.     774.09  E(vib)   ...       0.05
freq.     785.12  E(vib)   ...       0.05
freq.     803.93  E(vib)   ...       0.05
freq.     848.56  E(vib)   ...       0.04
freq.     860.45  E(vib)   ...       0.04
freq.     869.67  E(vib)   ...       0.04
freq.     875.90  E(vib)   ...       0.04
freq.     898.58  E(vib)   ...       0.03
freq.     938.31  E(vib)   ...       0.03
freq.     955.81  E(vib)   ...       0.03
freq.     974.62  E(vib)   ...       0.03
freq.     976.84  E(vib)   ...       0.03
freq.     983.28  E(vib)   ...       0.02
freq.     991.72  E(vib)   ...       0.02
freq.    1017.64  E(vib)   ...       0.02
freq.    1022.74  E(vib)   ...       0.02
freq.    1055.26  E(vib)   ...       0.02
freq.    1073.82  E(vib)   ...       0.02
freq.    1099.53  E(vib)   ...       0.02
freq.    1114.98  E(vib)   ...       0.01
freq.    1117.83  E(vib)   ...       0.01
freq.    1148.83  E(vib)   ...       0.01
freq.    1149.07  E(vib)   ...       0.01
freq.    1176.27  E(vib)   ...       0.01
freq.    1178.24  E(vib)   ...       0.01
freq.    1181.14  E(vib)   ...       0.01
freq.    1191.91  E(vib)   ...       0.01
freq.    1207.00  E(vib)   ...       0.01
freq.    1241.54  E(vib)   ...       0.01
freq.    1256.75  E(vib)   ...       0.01
freq.    1275.00  E(vib)   ...       0.01
freq.    1289.32  E(vib)   ...       0.01
freq.    1316.93  E(vib)   ...       0.01
freq.    1331.50  E(vib)   ...       0.01
freq.    1352.56  E(vib)   ...       0.01
freq.    1395.66  E(vib)   ...       0.00
freq.    1417.65  E(vib)   ...       0.00
freq.    1441.87  E(vib)   ...       0.00
freq.    1455.37  E(vib)   ...       0.00
freq.    1458.75  E(vib)   ...       0.00
freq.    1471.62  E(vib)   ...       0.00
freq.    1474.77  E(vib)   ...       0.00
freq.    1487.15  E(vib)   ...       0.00
freq.    1488.69  E(vib)   ...       0.00
freq.    1490.80  E(vib)   ...       0.00
freq.    1504.31  E(vib)   ...       0.00
freq.    1512.57  E(vib)   ...       0.00
freq.    1532.38  E(vib)   ...       0.00
freq.    1572.79  E(vib)   ...       0.00
freq.    1581.97  E(vib)   ...       0.00
freq.    1605.57  E(vib)   ...       0.00
freq.    1609.98  E(vib)   ...       0.00
freq.    1681.81  E(vib)   ...       0.00
freq.    2985.59  E(vib)   ...       0.00
freq.    3025.05  E(vib)   ...       0.00
freq.    3048.62  E(vib)   ...       0.00
freq.    3109.47  E(vib)   ...       0.00
freq.    3113.72  E(vib)   ...       0.00
freq.    3120.43  E(vib)   ...       0.00
freq.    3138.31  E(vib)   ...       0.00
freq.    3151.55  E(vib)   ...       0.00
freq.    3152.97  E(vib)   ...       0.00
freq.    3162.73  E(vib)   ...       0.00
freq.    3164.77  E(vib)   ...       0.00
freq.    3166.73  E(vib)   ...       0.00
freq.    3170.32  E(vib)   ...       0.00
freq.    3174.92  E(vib)   ...       0.00
freq.    3194.59  E(vib)   ...       0.00

------------
INNER ENERGY
------------

The inner energy is: U= E(el) + E(ZPE) + E(vib) + E(rot) + E(trans)
    E(el)   - is the total energy from the electronic structure calculation
              = E(kin-el) + E(nuc-el) + E(el-el) + E(nuc-nuc)
    E(ZPE)  - the the zero temperature vibrational energy from the frequency calculation
    E(vib)  - the the finite temperature correction to E(ZPE) due to population
              of excited vibrational states
    E(rot)  - is the rotational thermal energy
    E(trans)- is the translational thermal energy

Summary of contributions to the inner energy U:
Electronic energy                ...  -1079.34022460 Eh
Zero point energy                ...      0.28900415 Eh     181.35 kcal/mol
Thermal vibrational correction   ...      0.01954919 Eh      12.27 kcal/mol
Thermal rotational correction    ...      0.00141627 Eh       0.89 kcal/mol
Thermal translational correction ...      0.00141627 Eh       0.89 kcal/mol
-----------------------------------------------------------------------
Total thermal energy                  -1079.02883872 Eh

Summary of corrections to the electronic energy:
(perhaps to be used in another calculation)
Total thermal correction                  0.02238173 Eh      14.04 kcal/mol
Non-thermal (ZPE) correction              0.28900415 Eh     181.35 kcal/mol
-----------------------------------------------------------------------
Total correction                          0.31138588 Eh     195.40 kcal/mol

--------

Rotational constants in cm-1:     0.020123     0.002710     0.002442

                             ****ORCA TERMINATED NORMALLY****
TOTAL RUN TIME: 0 days 15 hours 0 minutes 2 seconds 511 msec
