   * xtb version 6.4.1 (afa7bdf) compiled by 'ehlert@majestix' on 2021-06-10
          program call               : xtb Aldol-OH.xyz --opt --alpb thf
          number of atoms            :                    41
          number of electrons        :                   120
          charge                     :                     0

   ID    Z sym.   atoms
    1    6 C      1-6, 8, 12, 18, 19, 21, 23, 25-28, 33, 35
    2    8 O      7, 17, 20, 34, 39
    3    1 H      9-11, 13-16, 22, 24, 29-32, 36-38, 40, 41

        Solvent                        thf
        Solvent mass                       7.2106E+01 g/mol
          :  Hamiltonian                  GFN2-xTB          :
 * total energy  :   -68.0680202 Eh     change       -0.4961862E-09 Eh
 * total energy  :   -68.0726916 Eh     change       -0.4671397E-02 Eh
 * total energy  :   -68.0734983 Eh     change       -0.8067451E-03 Eh
 * total energy  :   -68.0736226 Eh     change       -0.1242113E-03 Eh
 * total energy  :   -68.0736829 Eh     change       -0.6030803E-04 Eh
 * total energy  :   -68.0737142 Eh     change       -0.3130162E-04 Eh
 * total energy  :   -68.0737543 Eh     change       -0.4009745E-04 Eh
 * total energy  :   -68.0738027 Eh     change       -0.4847222E-04 Eh
 * total energy  :   -68.0738599 Eh     change       -0.5711395E-04 Eh
 * total energy  :   -68.0739327 Eh     change       -0.7289365E-04 Eh
 * total energy  :   -68.0767410 Eh     change       -0.3463614E-05 Eh
 * total energy  :   -68.0767565 Eh     change       -0.1548615E-04 Eh
 * total energy  :   -68.0767659 Eh     change       -0.9430300E-05 Eh
 * total energy  :   -68.0767744 Eh     change       -0.8500938E-05 Eh
 * total energy  :   -68.0767816 Eh     change       -0.7142516E-05 Eh
 * total energy  :   -68.0767871 Eh     change       -0.5585056E-05 Eh
 * total energy  :   -68.0767930 Eh     change       -0.5856153E-05 Eh
 * total energy  :   -68.0767995 Eh     change       -0.6457444E-05 Eh
 * total energy  :   -68.0768019 Eh     change       -0.2461200E-05 Eh
   *** GEOMETRY OPTIMIZATION CONVERGED AFTER 64 ITERATIONS ***

 final structure:
================
41
 xtb: 6.4.1 (afa7bdf)
C        -2.56950946745473    2.30847948692777    0.09650459902578
C        -2.75432902054190    1.02802744745973    0.61222848588927
C        -1.67166046420603    0.16827239399531    0.72446229644111
C        -0.40370599515443    0.55546816308320    0.33982429061819
C        -0.20451800887304    1.83871852984074   -0.17736338729944
C        -1.29100028268401    2.69996111307643   -0.29535332699296
O        -3.54852378102489    3.23525515305943   -0.06469544161984
C        -4.86951830253424    2.90783979001898    0.32066987120590
H        -5.24978720491233    2.05408770446962   -0.24714764458150
H        -5.46330135395595    3.79023372324971    0.09018733058592
H        -4.92920589707969    2.69698315512801    1.39226971155921
C         1.11413018450754    2.33945447477920   -0.62586977303482
H        -1.14462123635616    3.69116617273048   -0.69593252185428
H        -3.72880838186813    0.69025087542871    0.92582801933915
H        -1.82996935829163   -0.82283516647191    1.12174487804491
H         0.41432462853031   -0.13837739495433    0.43474572070878
O         1.23120101032430    3.42698554718701   -1.16411502341866
C         2.31399716267631    1.44499400603729   -0.40282278567365
C         3.63768627971091    2.15957054348869   -0.75686052045143
O         3.70146979141442    2.48062687490819   -2.12562529503986
C         4.79441433909253    1.25838309638769   -0.39601079230870
H         3.69914493521348    3.08050954296375   -0.15322835951867
C         5.36054500004861    0.42422672829210   -1.35282844230504
H         2.98405703709486    3.10513824491430   -2.31022653894744
C         5.28421452645337    1.23446320654529    0.90626020328051
C         6.40207507380045   -0.42057312480704   -1.02195453763818
C         6.88957460846634   -0.44580194122561    0.28333891268444
C         6.32221343196811    0.39081176409256    1.24487846718056
H         4.85498400391268    1.88549781036143    1.65367293041343
H         4.98428718745631    0.46038854945292   -2.36281945872107
H         6.84278024547489   -1.06256676453447   -1.76777144640562
H         6.71474488124501    0.36515394591104    2.25041894296492
C         8.00137991107241   -1.33257446610321    0.68567569310060
O         8.41667086613494   -2.13099428500058   -0.30435142820526
C         9.48419208380083   -3.02605371568155   -0.00254582250919
H         9.21938759185036   -3.65415823194956    0.85078393477810
H        10.38958686205388   -2.46507759999059    0.23876964175513
H         9.62782230852433   -3.62657070253715   -0.89680167848015
O         8.49437202818048   -1.35313449066876    1.79543563495385
H         2.21032856015990    0.56454017144004   -1.04148017050655
H         2.34328990606947    1.11863670829497    0.63655479188183

          :  Hamiltonian                  GFN2-xTB          :
         :: total energy             -68.076801916538 Eh    ::
         :: gradient norm              0.000893338110 Eh/a0 ::
         :: HOMO-LUMO gap              2.792415006440 eV    ::
         :: SCC energy               -68.986107140129 Eh    ::
         :: -> dispersion             -0.039304455954 Eh    ::
         :: -> Gsolv                  -0.039284841319 Eh    ::
         :: repulsion energy           0.909631474264 Eh    ::

    * Orbital Energies and Occupations

         #    Occupation            Energy/Eh            Energy/eV
      -------------------------------------------------------------
         1        2.0000           -0.7446331             -20.2625
       ...           ...                  ...                  ...
        48        2.0000           -0.4580577             -12.4644
        49        2.0000           -0.4543839             -12.3644
        50        2.0000           -0.4483565             -12.2004
        51        2.0000           -0.4440384             -12.0829
        52        2.0000           -0.4345672             -11.8252
        53        2.0000           -0.4282817             -11.6541
        54        2.0000           -0.4205301             -11.4432
        55        2.0000           -0.4204428             -11.4408
        56        2.0000           -0.4158539             -11.3160
        57        2.0000           -0.4152148             -11.2986
        58        2.0000           -0.4072952             -11.0831
        59        2.0000           -0.3971643             -10.8074
        60        2.0000           -0.3919720             -10.6661 (HOMO)
        61                         -0.2893526              -7.8737 (LUMO)
        62                         -0.2741682              -7.4605
        63                         -0.2322930              -6.3210
        64                         -0.2303140              -6.2672
        65                         -0.1996870              -5.4338
        66                         -0.1909155              -5.1951
        67                         -0.0941017              -2.5606
        68                         -0.0931561              -2.5349
        69                          0.0104725               0.2850
        70                          0.0151121               0.4112
        71                          0.0546830               1.4880
       ...                                ...                  ...
       110                          0.6792903              18.4844
      -------------------------------------------------------------
                  HL-Gap            0.1026194 Eh            2.7924 eV

     #   Z          covCN         q      C6AA      α(0)
     1   6 C        2.861     0.147    24.792     8.161
     2   6 C        2.917    -0.061    29.519     8.909
     3   6 C        2.919    -0.033    28.831     8.805
     4   6 C        2.918    -0.045    29.120     8.849
     5   6 C        2.970    -0.017    28.427     8.746
     6   6 C        2.928    -0.046    29.145     8.853
     7   8 O        1.705    -0.279    18.635     5.828
     8   6 C        3.642     0.019    20.612     6.527
     9   1 H        0.924     0.054     2.268     2.355
    10   1 H        0.925     0.080     1.980     2.201
    11   1 H        0.924     0.054     2.268     2.355
    12   6 C        2.822     0.235    23.081     7.872
    13   1 H        0.926     0.070     2.081     2.256
    14   1 H        0.926     0.058     2.227     2.333
    15   1 H        0.926     0.059     2.216     2.328
    16   1 H        0.926     0.056     2.245     2.343
    17   8 O        0.857    -0.412    21.912     6.276
    18   6 C        3.805    -0.104    22.478     6.749
    19   6 C        3.731     0.122    18.671     6.168
    20   8 O        1.656    -0.477    22.399     6.389
    21   6 C        2.973     0.014    27.686     8.631
    22   1 H        0.923     0.027     2.628     2.535
    23   6 C        2.922    -0.029    28.725     8.789
    24   1 H        0.804     0.339     0.615     1.231
    25   6 C        2.921    -0.040    28.988     8.829
    26   6 C        2.920    -0.026    28.654     8.778
    27   6 C        2.972    -0.026    28.647     8.779
    28   6 C        2.923    -0.023    28.575     8.766
    29   1 H        0.926     0.051     2.311     2.377
    30   1 H        0.926     0.073     2.055     2.241
    31   1 H        0.926     0.065     2.140     2.288
    32   1 H        0.926     0.062     2.176     2.307
    33   6 C        2.727     0.350    21.061     7.513
    34   8 O        1.704    -0.268    18.441     5.798
    35   6 C        3.652     0.017    20.606     6.519
    36   1 H        0.924     0.071     2.079     2.255
    37   1 H        0.924     0.070     2.086     2.259
    38   1 H        0.925     0.090     1.880     2.144
    39   8 O        0.856    -0.462    22.958     6.424
    40   1 H        0.924     0.089     1.886     2.147
    41   1 H        0.925     0.075     2.029     2.227

Wiberg/Mayer (AO) data.
largest (>0.10) Wiberg bond orders for each atom

     #   Z sym  total        # sym  WBO       # sym  WBO       # sym  WBO
 ---------------------------------------------------------------------------
     1   6 C    3.938 --     2 C    1.364     6 C    1.358     7 O    1.074
     2   6 C    3.989 --     3 C    1.427     1 C    1.364    14 H    0.965
     3   6 C    3.990 --     4 C    1.464     2 C    1.427    15 H    0.968
                             6 C    0.101
     4   6 C    3.990 --     3 C    1.464     5 C    1.356    16 H    0.965
     5   6 C    3.986 --     6 C    1.401     4 C    1.356    12 C    1.039
     6   6 C    3.987 --     5 C    1.401     1 C    1.358    13 H    0.963
                             3 C    0.101
     7   8 O    2.235 --     1 C    1.074     8 C    0.973
     8   6 C    3.933 --    10 H    0.978    11 H    0.976     9 H    0.976
                             7 O    0.973
     9   1 H    0.997 --     8 C    0.976
    10   1 H    0.993 --     8 C    0.978
    11   1 H    0.997 --     8 C    0.976
    12   6 C    3.914 --    17 O    1.777     5 C    1.039    18 C    0.997
    13   1 H    0.995 --     6 C    0.963
    14   1 H    0.996 --     2 C    0.965
    15   1 H    0.996 --     3 C    0.968
    16   1 H    0.997 --     4 C    0.965
    17   8 O    2.037 --    12 C    1.777
    18   6 C    3.993 --    12 C    0.997    19 C    0.963    41 H    0.951
                            40 H    0.940
    19   6 C    3.962 --    20 O    1.002    21 C    0.993    18 C    0.963
                            22 H    0.954
    20   8 O    1.939 --    19 C    1.002    24 H    0.857
    21   6 C    3.986 --    23 C    1.406    25 C    1.399    19 C    0.993
    22   1 H    0.998 --    19 C    0.954
    23   6 C    3.988 --    26 C    1.459    21 C    1.406    30 H    0.964
                            28 C    0.103
    24   1 H    0.885 --    20 O    0.857
    25   6 C    3.989 --    28 C    1.467    21 C    1.399    29 H    0.967
                            26 C    0.104
    26   6 C    3.988 --    23 C    1.459    27 C    1.382    31 H    0.965
                            25 C    0.104
    27   6 C    3.985 --    26 C    1.382    28 C    1.375    33 C    1.015
    28   6 C    3.988 --    25 C    1.467    27 C    1.375    32 H    0.965
                            23 C    0.103
    29   1 H    0.997 --    25 C    0.967
    30   1 H    0.994 --    23 C    0.964
    31   1 H    0.995 --    26 C    0.965
    32   1 H    0.996 --    28 C    0.965
    33   6 C    3.913 --    39 O    1.687    34 O    1.132    27 C    1.015
    34   8 O    2.303 --    33 C    1.132    35 C    0.950    39 O    0.166
    35   6 C    3.914 --    38 H    0.979    36 H    0.976    37 H    0.976
                            34 O    0.950
    36   1 H    0.995 --    35 C    0.976
    37   1 H    0.995 --    35 C    0.976
    38   1 H    0.992 --    35 C    0.979
    39   8 O    1.988 --    33 C    1.687    34 O    0.166
    40   1 H    0.992 --    18 C    0.940
    41   1 H    0.994 --    18 C    0.951
 ---------------------------------------------------------------------------

molecular dipole:
                 x           y           z       tot (Debye)
 q only:       -2.182      -1.200       0.031
   full:       -2.396      -1.289       0.223       6.938

           -------------------------------------------------
          | TOTAL ENERGY              -68.076801916538 Eh   |
          | GRADIENT NORM               0.000893338110 Eh/α |
          | HOMO-LUMO GAP               2.792415006440 eV   |
           -------------------------------------------------

 * finished run on 2022/02/28 at 12:01:27.491
