                         Program Version 5.0.2 -  RELEASE  -
|  1> ! TPSS D3BJ def2-TZVP RI def2/J CPCM(THF)
|  2> ! Opt numfreq Pal4
|  3>
|  4> * xyz 0 1
|  5> N        -3.69992708455461   -2.44696513874598   -0.76519102149449
|  6> C        -2.27795731572095   -2.65056568310402   -0.70216703442551
|  7> C        -4.28270471550862   -1.84853070206507    0.40119700862445
|  8> C        -1.48205004357048   -1.64097872852794   -1.55287904592625
|  9> C        -1.92092675419308   -4.06614404216415   -1.17732722654006
| 10> H        -1.92929985674697   -2.55202780836494    0.34387381056371
| 11> C        -4.04655804774177   -0.32570833057428    0.51123404503345
| 12> H        -3.85361051269733   -2.30599509132962    1.32010240155003
| 13> C        -5.78862631933464   -2.11116993479953    0.41460615747049
| 14> H        -1.75842252976470   -1.76040760155593   -2.60128107608997
| 15> H        -0.41138371010262   -1.80366347057006   -1.44549857705677
| 16> H        -1.71412473646118   -0.62459549728382   -1.24885329071237
| 17> H        -2.24817989350386   -4.18748627559713   -2.21162902482094
| 18> H        -2.43136994305043   -4.80026027543560   -0.55974496299154
| 19> H        -0.84841405875664   -4.23739476394149   -1.12002539653337
| 20> H        -2.98542124623397   -0.11692883551441    0.61784669910484
| 21> H        -4.56506631556124    0.08273358572781    1.37665700419445
| 22> H        -4.41001973495435    0.16366290063350   -0.39205458835075
| 23> H        -6.23831349478283   -1.64609407760622   -0.46605311764737
| 24> H        -6.24527438696350   -1.69260995727157    1.30767065770249
| 25> H        -5.97308684664509   -3.18297871491506    0.38965183822554
| 26> Li       -4.63216497185117   -2.67450513709446   -2.21728387438005
| 27> *
| 28>
| 29>                          ****END OF INPUT****
 Total Charge           Charge          ....    0
 Multiplicity           Mult            ....    1
 Number of Electrons    NEL             ....   60
Dispersion correction           -0.025930380
FINAL SINGLE POINT ENERGY      -299.531681606600
Dispersion correction            ... done
Dispersion correction           -0.025714146
FINAL SINGLE POINT ENERGY      -299.533790740048
Dispersion correction            ... done
Dispersion correction           -0.025640227
FINAL SINGLE POINT ENERGY      -299.534534684840
Dispersion correction            ... done
FINAL SINGLE POINT ENERGY      -299.535049705036
FINAL SINGLE POINT ENERGY      -299.535221084425
FINAL SINGLE POINT ENERGY      -299.535310881128
FINAL SINGLE POINT ENERGY      -299.535333988724
FINAL SINGLE POINT ENERGY      -299.535346177897
FINAL SINGLE POINT ENERGY      -299.535353615066
FINAL SINGLE POINT ENERGY      -299.535361318067
FINAL SINGLE POINT ENERGY      -299.535369195902
FINAL SINGLE POINT ENERGY      -299.535376896322
FINAL SINGLE POINT ENERGY      -299.535383735139
FINAL SINGLE POINT ENERGY      -299.535389980686
FINAL SINGLE POINT ENERGY      -299.535395738383
Dispersion correction            ... done
Dispersion correction           -0.025633264
FINAL SINGLE POINT ENERGY      -299.535399759693
Dispersion correction            ... done
Dispersion correction           -0.025633577
FINAL SINGLE POINT ENERGY      -299.535401483113
Dispersion correction            ... done
                    ***********************HURRAY********************

CARTESIAN COORDINATES (ANGSTROEM)
---------------------------------
  N     -3.725447   -2.525490   -0.768366
  C     -2.272693   -2.638802   -0.710391
  C     -4.308644   -1.885760    0.400206
  C     -1.540749   -1.587770   -1.577093
  C     -1.832380   -4.045985   -1.153046
  H     -1.928092   -2.500523    0.333198
  C     -3.941009   -0.394776    0.580516
  H     -3.976541   -2.398124    1.331896
  C     -5.835255   -2.023838    0.326781
  H     -1.817911   -1.728135   -2.630704
  H     -0.447428   -1.674492   -1.496725
  H     -1.829543   -0.572925   -1.287627
  H     -2.188253   -4.238821   -2.175384
  H     -2.266870   -4.806482   -0.494951
  H     -0.739978   -4.159482   -1.152437
  H     -2.857830   -0.269488    0.679982
  H     -4.413296    0.029727    1.477788
  H     -4.271452    0.178937   -0.295844
  H     -6.217939   -1.503215   -0.566221
  H     -6.333473   -1.578907    1.195267
  H     -6.127746   -3.081302    0.271795
  Li    -4.870376   -3.022960   -2.065788

 Multiplicity           Mult            ....    1
 Number of Electrons    NEL             ....   60
 Basis Dimension        Dim             ....  315

ORBITAL ENERGIES
----------------

  NO   OCC          E(Eh)            E(eV)
   0   2.0000     -14.001974      -381.0131
   1   2.0000      -9.985831      -271.7283
   2   2.0000      -9.982151      -271.6281
   3   2.0000      -9.966072      -271.1906
   4   2.0000      -9.956834      -270.9392
   5   2.0000      -9.954507      -270.8759
   6   2.0000      -9.953523      -270.8491
   7   2.0000      -1.878299       -51.1111
   8   2.0000      -0.779179       -21.2025
   9   2.0000      -0.703531       -19.1441
  10   2.0000      -0.633449       -17.2370
  11   2.0000      -0.618640       -16.8340
  12   2.0000      -0.609507       -16.5855
  13   2.0000      -0.509510       -13.8645
  14   2.0000      -0.476216       -12.9585
  15   2.0000      -0.409925       -11.1546
  16   2.0000      -0.397408       -10.8140
  17   2.0000      -0.375650       -10.2219
  18   2.0000      -0.362224        -9.8566
  19   2.0000      -0.349123        -9.5001
  20   2.0000      -0.340266        -9.2591
  21   2.0000      -0.331231        -9.0133
  22   2.0000      -0.328873        -8.9491
  23   2.0000      -0.302663        -8.2359
  24   2.0000      -0.295939        -8.0529
  25   2.0000      -0.290674        -7.9096
  26   2.0000      -0.273980        -7.4554
  27   2.0000      -0.259133        -7.0514
  28   2.0000      -0.202143        -5.5006
  29   2.0000      -0.120231        -3.2717
  30   0.0000      -0.021086        -0.5738
  31   0.0000       0.032890         0.8950
  32   0.0000       0.036206         0.9852
  33   0.0000       0.044730         1.2172
  34   0.0000       0.072080         1.9614

MULLIKEN ATOMIC CHARGES
-----------------------
   0 N :   -0.849269
   1 C :    0.165068
   2 C :    0.139801
   3 C :   -0.341183
   4 C :   -0.358102
   5 H :    0.025950
   6 C :   -0.301143
   7 H :    0.016516
   8 C :   -0.451097
   9 H :    0.084802
  10 H :    0.088368
  11 H :    0.106604
  12 H :    0.092841
  13 H :    0.103872
  14 H :    0.100328
  15 H :    0.115207
  16 H :    0.090556
  17 H :    0.071484
  18 H :    0.116464
  19 H :    0.118794
  20 H :    0.136373
  21 Li:    0.727766
Sum of atomic charges:    0.0000000

LOEWDIN ATOMIC CHARGES
----------------------
   0 N :   -0.168359
   1 C :   -0.388171
   2 C :   -0.409405
   3 C :   -0.305971
   4 C :   -0.301595
   5 H :    0.128865
   6 C :   -0.303014
   7 H :    0.122003
   8 C :   -0.298888
   9 H :    0.112375
  10 H :    0.108156
  11 H :    0.109256
  12 H :    0.116600
  13 H :    0.111713
  14 H :    0.110935
  15 H :    0.112888
  16 H :    0.109721
  17 H :    0.110281
  18 H :    0.124045
  19 H :    0.119702
  20 H :    0.122763
  21 Li:    0.556099

  Mayer bond orders larger than 0.100000
B(  0-N ,  1-C ) :   0.9186 B(  0-N ,  2-C ) :   1.0834 B(  0-N ,  6-C ) :  -0.1064
B(  0-N , 21-Li) :   0.4308 B(  1-C ,  3-C ) :   0.9729 B(  1-C ,  4-C ) :   0.9696
B(  1-C ,  5-H ) :   0.9210 B(  2-C ,  6-C ) :   0.9391 B(  2-C ,  7-H ) :   0.9263
B(  2-C ,  8-C ) :   0.9418 B(  3-C ,  9-H ) :   0.9683 B(  3-C , 10-H ) :   0.9579
B(  3-C , 11-H ) :   0.9698 B(  4-C , 12-H ) :   0.9705 B(  4-C , 13-H ) :   0.9743
B(  4-C , 14-H ) :   0.9625 B(  6-C , 15-H ) :   0.9675 B(  6-C , 16-H ) :   0.9504
B(  6-C , 17-H ) :   0.9583 B(  8-C , 18-H ) :   0.9682 B(  8-C , 19-H ) :   0.9615
B(  8-C , 20-H ) :   0.9691

Dispersion correction           -0.025633662
FINAL SINGLE POINT ENERGY      -299.535401930811

DIPOLE MOMENT
-------------
                                X             Y             Z
Electronic contribution:     -5.44028      -3.81965      -5.20362
Nuclear contribution   :      3.86305       3.09838       3.66548
                        -----------------------------------------
Total Dipole Moment    :     -1.57723      -0.72127      -1.53814
                        -----------------------------------------
Magnitude (a.u.)       :      2.31814
Magnitude (Debye)      :      5.89224

VIBRATIONAL FREQUENCIES
-----------------------

Scaling factor for frequencies =  1.000000000 (already applied!)

   0:         0.00 cm**-1
   1:         0.00 cm**-1
   2:         0.00 cm**-1
   3:         0.00 cm**-1
   4:         0.00 cm**-1
   5:         0.00 cm**-1
   6:        58.63 cm**-1
   7:        69.94 cm**-1
   8:        92.01 cm**-1
   9:       156.41 cm**-1
  10:       190.15 cm**-1
  11:       234.05 cm**-1
  12:       242.78 cm**-1
  13:       268.85 cm**-1
  14:       280.23 cm**-1
  15:       310.31 cm**-1
  16:       323.28 cm**-1
  17:       378.19 cm**-1
  18:       457.72 cm**-1
  19:       473.77 cm**-1
  20:       500.65 cm**-1
  21:       619.64 cm**-1
  22:       805.75 cm**-1
  23:       831.92 cm**-1
  24:       886.10 cm**-1
  25:       886.79 cm**-1
  26:       893.51 cm**-1
  27:       902.18 cm**-1
  28:       929.01 cm**-1
  29:      1019.26 cm**-1
  30:      1086.53 cm**-1
  31:      1099.94 cm**-1
  32:      1118.26 cm**-1
  33:      1144.28 cm**-1
  34:      1154.05 cm**-1
  35:      1177.33 cm**-1
  36:      1291.03 cm**-1
  37:      1306.62 cm**-1
  38:      1324.64 cm**-1
  39:      1338.51 cm**-1
  40:      1353.03 cm**-1
  41:      1358.90 cm**-1
  42:      1371.38 cm**-1
  43:      1376.31 cm**-1
  44:      1460.89 cm**-1
  45:      1463.61 cm**-1
  46:      1465.19 cm**-1
  47:      1471.95 cm**-1
  48:      1475.99 cm**-1
  49:      1479.06 cm**-1
  50:      1482.17 cm**-1
  51:      1490.89 cm**-1
  52:      2772.46 cm**-1
  53:      2857.89 cm**-1
  54:      2942.68 cm**-1
  55:      2956.38 cm**-1
  56:      2959.35 cm**-1
  57:      2963.36 cm**-1
  58:      3005.30 cm**-1
  59:      3008.43 cm**-1
  60:      3014.10 cm**-1
  61:      3015.88 cm**-1
  62:      3043.47 cm**-1
  63:      3044.50 cm**-1
  64:      3050.63 cm**-1
  65:      3060.39 cm**-1

IR SPECTRUM
-----------

 Mode   freq       eps      Int      T**2         TX        TY        TZ
       cm**-1   L/(mol*cm) km/mol    a.u.
----------------------------------------------------------------------------
  6:     58.63   0.000593    3.00  0.003157  ( 0.000433  0.054480 -0.013743)
  7:     69.94   0.005044   25.49  0.022505  (-0.092150 -0.033285  0.113604)
  8:     92.01   0.020493  103.56  0.069506  ( 0.181849 -0.114620 -0.152640)
  9:    156.41   0.015610   78.89  0.031145  ( 0.007404  0.161142 -0.071577)
 10:    190.15   0.001054    5.33  0.001730  (-0.027924 -0.026990  0.014897)
 11:    234.05   0.000056    0.28  0.000075  ( 0.007341  0.004529 -0.000422)
 12:    242.78   0.000173    0.88  0.000223  (-0.007224  0.013021  0.000950)
 13:    268.85   0.000396    2.00  0.000460  ( 0.008951  0.013581 -0.013970)
 14:    280.23   0.000041    0.21  0.000046  ( 0.002892 -0.005489  0.002711)
 15:    310.31   0.000251    1.27  0.000252  ( 0.004282  0.014225 -0.005601)
 16:    323.28   0.000361    1.83  0.000349  ( 0.012303  0.013320 -0.004472)
 17:    378.19   0.000404    2.04  0.000333  (-0.004103  0.017489  0.003240)
 18:    457.72   0.003517   17.77  0.002398  ( 0.005248  0.009874 -0.047671)
 19:    473.77   0.001993   10.07  0.001313  ( 0.008265  0.030257 -0.018139)
 20:    500.65   0.005131   25.93  0.003198  ( 0.025221 -0.044191  0.024681)
 21:    619.64   0.009992   50.49  0.005032  (-0.046364 -0.029166 -0.045076)
 22:    805.75   0.001239    6.26  0.000480  (-0.005027 -0.006167 -0.020411)
 23:    831.92   0.003009   15.21  0.001129  (-0.013843 -0.009693 -0.029039)
 24:    886.10   0.000414    2.09  0.000146  ( 0.008428  0.005367 -0.006792)
 25:    886.79   0.000928    4.69  0.000326  (-0.007924 -0.012563 -0.010285)
 26:    893.51   0.006309   31.89  0.002204  (-0.023088 -0.030474 -0.027237)
 27:    902.18   0.003478   17.58  0.001203  ( 0.016070  0.015778  0.026380)
 28:    929.01   0.010165   51.37  0.003415  ( 0.022399  0.017673  0.050995)
 29:   1019.26   0.009855   49.80  0.003017  ( 0.048709 -0.014569 -0.020792)
 30:   1086.53   0.003148   15.91  0.000904  (-0.024235  0.017699  0.001888)
 31:   1099.94   0.002630   13.29  0.000746  ( 0.003541 -0.026292  0.006518)
 32:   1118.26   0.013785   69.66  0.003847  ( 0.052396 -0.014795 -0.029709)
 33:   1144.28   0.014222   71.87  0.003879  (-0.059727 -0.009572 -0.014819)
 34:   1154.05   0.027962  141.31  0.007561  ( 0.061875 -0.034805 -0.050212)
 35:   1177.33   0.007508   37.94  0.001990  (-0.006957  0.024963  0.036313)
 36:   1291.03   0.020466  103.43  0.004947  ( 0.052102 -0.021721 -0.041959)
 37:   1306.62   0.003872   19.57  0.000925  (-0.001781 -0.029122  0.008573)
 38:   1324.64   0.004555   23.02  0.001073  (-0.007372 -0.025615 -0.019045)
 39:   1338.51   0.001489    7.53  0.000347  ( 0.016808  0.006553 -0.004661)
 40:   1353.03   0.000499    2.52  0.000115  (-0.007070 -0.007436 -0.003145)
 41:   1358.90   0.002469   12.48  0.000567  (-0.007452 -0.022083  0.004887)
 42:   1371.38   0.001858    9.39  0.000423  ( 0.018220 -0.009414  0.001472)
 43:   1376.31   0.001336    6.75  0.000303  ( 0.003806  0.004904  0.016259)
 44:   1460.89   0.000097    0.49  0.000021  ( 0.003248 -0.000410  0.003160)
 45:   1463.61   0.000172    0.87  0.000037  (-0.002925  0.001001 -0.005201)
 46:   1465.19   0.000123    0.62  0.000026  (-0.000275 -0.005119 -0.000139)
 47:   1471.95   0.001743    8.81  0.000369  (-0.001990 -0.015699  0.010909)
 48:   1475.99   0.000387    1.96  0.000082  ( 0.003604  0.008056  0.001990)
 49:   1479.06   0.002038   10.30  0.000430  ( 0.006804 -0.000648  0.019577)
 50:   1482.17   0.001366    6.90  0.000288  ( 0.006933 -0.004938  0.014668)
 51:   1490.89   0.000472    2.39  0.000099  (-0.001828 -0.003686  0.009051)
 52:   2772.46   0.057654  291.36  0.006489  (-0.009292  0.022149 -0.076893)
 53:   2857.89   0.032277  163.12  0.003524  ( 0.026349  0.001393  0.053181)
 54:   2942.68   0.017045   86.14  0.001808  ( 0.032300  0.004342  0.027303)
 55:   2956.38   0.014160   71.56  0.001495  ( 0.021190  0.031712 -0.006327)
 56:   2959.35   0.022574  114.08  0.002380  ( 0.015126 -0.043785 -0.015313)
 57:   2963.36   0.018857   95.30  0.001986  ( 0.029720 -0.010146 -0.031617)
 58:   3005.30   0.013911   70.30  0.001444  ( 0.010057  0.033596 -0.014650)
 59:   3008.43   0.000876    4.43  0.000091  (-0.003194 -0.006707 -0.005970)
 60:   3014.10   0.017539   88.64  0.001816  (-0.023144 -0.004247  0.035529)
 61:   3015.88   0.049455  249.92  0.005117  (-0.051122  0.007447 -0.049481)
 62:   3043.47   0.017242   87.13  0.001768  ( 0.022000  0.020740 -0.029218)
 63:   3044.50   0.013010   65.75  0.001334  (-0.008103  0.022815  0.027337)
 64:   3050.63   0.018291   92.43  0.001871  ( 0.040200 -0.015635 -0.003257)
 65:   3060.39   0.010143   51.26  0.001034  ( 0.003587 -0.026338 -0.018103)

--------------------------
THERMOCHEMISTRY AT 298.15K
--------------------------

Temperature         ... 298.15 K
Pressure            ... 1.00 atm
Total Mass          ... 107.13 AMU

Throughout the following assumptions are being made:
  (1) The electronic state is orbitally nondegenerate
  (2) There are no thermally accessible electronically excited states
  (3) Hindered rotations indicated by low frequency modes are not
      treated as such but are treated as vibrations and this may
      cause some error
  (4) All equations used are the standard statistical mechanics
      equations for an ideal gas
  (5) All vibrations are strictly harmonic

freq.      58.63  E(vib)   ...       0.51
freq.      69.94  E(vib)   ...       0.50
freq.      92.01  E(vib)   ...       0.47
freq.     156.41  E(vib)   ...       0.40
freq.     190.15  E(vib)   ...       0.36
freq.     234.05  E(vib)   ...       0.32
freq.     242.78  E(vib)   ...       0.31
freq.     268.85  E(vib)   ...       0.29
freq.     280.23  E(vib)   ...       0.28
freq.     310.31  E(vib)   ...       0.26
freq.     323.28  E(vib)   ...       0.25
freq.     378.19  E(vib)   ...       0.21
freq.     457.72  E(vib)   ...       0.16
freq.     473.77  E(vib)   ...       0.15
freq.     500.65  E(vib)   ...       0.14
freq.     619.64  E(vib)   ...       0.09
freq.     805.75  E(vib)   ...       0.05
freq.     831.92  E(vib)   ...       0.04
freq.     886.10  E(vib)   ...       0.04
freq.     886.79  E(vib)   ...       0.04
freq.     893.51  E(vib)   ...       0.03
freq.     902.18  E(vib)   ...       0.03
freq.     929.01  E(vib)   ...       0.03
freq.    1019.26  E(vib)   ...       0.02
freq.    1086.53  E(vib)   ...       0.02
freq.    1099.94  E(vib)   ...       0.02
freq.    1118.26  E(vib)   ...       0.01
freq.    1144.28  E(vib)   ...       0.01
freq.    1154.05  E(vib)   ...       0.01
freq.    1177.33  E(vib)   ...       0.01
freq.    1291.03  E(vib)   ...       0.01
freq.    1306.62  E(vib)   ...       0.01
freq.    1324.64  E(vib)   ...       0.01
freq.    1338.51  E(vib)   ...       0.01
freq.    1353.03  E(vib)   ...       0.01
freq.    1358.90  E(vib)   ...       0.01
freq.    1371.38  E(vib)   ...       0.01
freq.    1376.31  E(vib)   ...       0.01
freq.    1460.89  E(vib)   ...       0.00
freq.    1463.61  E(vib)   ...       0.00
freq.    1465.19  E(vib)   ...       0.00
freq.    1471.95  E(vib)   ...       0.00
freq.    1475.99  E(vib)   ...       0.00
freq.    1479.06  E(vib)   ...       0.00
freq.    1482.17  E(vib)   ...       0.00
freq.    1490.89  E(vib)   ...       0.00
freq.    2772.46  E(vib)   ...       0.00
freq.    2857.89  E(vib)   ...       0.00
freq.    2942.68  E(vib)   ...       0.00
freq.    2956.38  E(vib)   ...       0.00
freq.    2959.35  E(vib)   ...       0.00
freq.    2963.36  E(vib)   ...       0.00
freq.    3005.30  E(vib)   ...       0.00
freq.    3008.43  E(vib)   ...       0.00
freq.    3014.10  E(vib)   ...       0.00
freq.    3015.88  E(vib)   ...       0.00
freq.    3043.47  E(vib)   ...       0.00
freq.    3044.50  E(vib)   ...       0.00
freq.    3050.63  E(vib)   ...       0.00
freq.    3060.39  E(vib)   ...       0.00

------------
INNER ENERGY
------------

The inner energy is: U= E(el) + E(ZPE) + E(vib) + E(rot) + E(trans)
    E(el)   - is the total energy from the electronic structure calculation
              = E(kin-el) + E(nuc-el) + E(el-el) + E(nuc-nuc)
    E(ZPE)  - the the zero temperature vibrational energy from the frequency calculation
    E(vib)  - the the finite temperature correction to E(ZPE) due to population
              of excited vibrational states
    E(rot)  - is the rotational thermal energy
    E(trans)- is the translational thermal energy

Summary of contributions to the inner energy U:
Electronic energy                ...   -299.53540193 Eh
Zero point energy                ...      0.18862434 Eh     118.36 kcal/mol
Thermal vibrational correction   ...      0.00819278 Eh       5.14 kcal/mol
Thermal rotational correction    ...      0.00141627 Eh       0.89 kcal/mol
Thermal translational correction ...      0.00141627 Eh       0.89 kcal/mol
-----------------------------------------------------------------------
Total thermal energy                   -299.33575227 Eh

Summary of corrections to the electronic energy:
(perhaps to be used in another calculation)
Total thermal correction                  0.01102532 Eh       6.92 kcal/mol
Non-thermal (ZPE) correction              0.18862434 Eh     118.36 kcal/mol
-----------------------------------------------------------------------
Total correction                          0.19964966 Eh     125.28 kcal/mol

--------
ENTHALPY
--------

The enthalpy is H = U + kB*T
                kB is Boltzmann's constant
Total free energy                 ...   -299.33575227 Eh
Thermal Enthalpy correction       ...      0.00094421 Eh       0.59 kcal/mol
-----------------------------------------------------------------------
Total Enthalpy                    ...   -299.33480806 Eh

Note: Only C1 symmetry has been detected, increase convergence thresholds
      if your molecule has a higher symmetry. Symmetry factor of 1.0 is
      used for the rotational entropy correction.

Note: Rotational entropy computed according to Herzberg
Infrared and Raman Spectra, Chapter V,1, Van Nostrand Reinhold, 1945
Point Group:  C1, Symmetry Number:   1
Rotational constants in cm-1:     0.106890     0.048972     0.040187

Vibrational entropy computed according to the QRRHO of S. Grimme
Chem.Eur.J. 2012 18 9955

-------
ENTROPY
-------

The entropy contributions are T*S = T*(S(el)+S(vib)+S(rot)+S(trans))
     S(el)   - electronic entropy
     S(vib)  - vibrational entropy
     S(rot)  - rotational entropy
     S(trans)- translational entropy
The entropies will be listed as multiplied by the temperature to get
units of energy

Electronic entropy                ...      0.00000000 Eh      0.00 kcal/mol
Vibrational entropy               ...      0.01415134 Eh      8.88 kcal/mol
Rotational entropy                ...      0.01350785 Eh      8.48 kcal/mol
Translational entropy             ...      0.01896873 Eh     11.90 kcal/mol
-----------------------------------------------------------------------
Final entropy term                ...      0.04662792 Eh     29.26 kcal/mol

In case the symmetry of your molecule has not been determined correctly
or in case you have a reason to use a different symmetry number we print
out the resulting rotational entropy values for sn=1,12 :
 --------------------------------------------------------
|  sn= 1 | S(rot)=       0.01350785 Eh      8.48 kcal/mol|
|  sn= 2 | S(rot)=       0.01285339 Eh      8.07 kcal/mol|
|  sn= 3 | S(rot)=       0.01247056 Eh      7.83 kcal/mol|

                             ****ORCA TERMINATED NORMALLY****
TOTAL RUN TIME: 0 days 1 hours 55 minutes 37 seconds 991 msec
