                         Program Version 5.0.2 -  RELEASE  -
|  1> ! PW6B95 D3BJ def2-QZVP RIJK def2/JK tightSCF CPCM(THF)
|  2> ! sp Pal4
|  3>
|  4> * xyz 0 1
|  5>   N   -3.72544651311519     -2.52549028050249     -0.76836648044939
|  6>   C   -2.27269263840620     -2.63880249215030     -0.71039109282230
|  7>   C   -4.30864372083295     -1.88576049696919      0.40020635052361
|  8>   C   -1.54074891255012     -1.58777016442179     -1.57709319085451
|  9>   C   -1.83237996503383     -4.04598514697043     -1.15304585331175
| 10>   H   -1.92809171138703     -2.50052257354958      0.33319835898271
| 11>   C   -3.94100930689546     -0.39477606738620      0.58051560566855
| 12>   H   -3.97654073443705     -2.39812382506038      1.33189626409078
| 13>   C   -5.83525476008701     -2.02383769728356      0.32678060650311
| 14>   H   -1.81791078904355     -1.72813471981225     -2.63070393040610
| 15>   H   -0.44742839574325     -1.67449187677809     -1.49672502134296
| 16>   H   -1.82954278766791     -0.57292533665543     -1.28762708480735
| 17>   H   -2.18825300511201     -4.23882114534168     -2.17538411956255
| 18>   H   -2.26687034625943     -4.80648236828059     -0.49495145454080
| 19>   H   -0.73997763410542     -4.15948177374645     -1.15243712537940
| 20>   H   -2.85782962626746     -0.26948798253131      0.67998229531393
| 21>   H   -4.41329580938757      0.02972729929770      1.47778825779703
| 22>   H   -4.27145214099030      0.17893672771385     -0.29584395750726
| 23>   H   -6.21793900037355     -1.50321504096535     -0.56622121017489
| 24>   H   -6.33347308872677     -1.57890684507044      1.19526698996810
| 25>   H   -6.12774572904286     -3.08130156835528      0.27179485147036
| 26>   Li  -4.87037590323507     -3.02296020528067     -2.06578767365891
| 27> *
| 28>
| 29>                          ****END OF INPUT****

CARTESIAN COORDINATES (ANGSTROEM)
---------------------------------
  N     -3.725447   -2.525490   -0.768366
  C     -2.272693   -2.638802   -0.710391
  C     -4.308644   -1.885760    0.400206
  C     -1.540749   -1.587770   -1.577093
  C     -1.832380   -4.045985   -1.153046
  H     -1.928092   -2.500523    0.333198
  C     -3.941009   -0.394776    0.580516
  H     -3.976541   -2.398124    1.331896
  C     -5.835255   -2.023838    0.326781
  H     -1.817911   -1.728135   -2.630704
  H     -0.447428   -1.674492   -1.496725
  H     -1.829543   -0.572925   -1.287627
  H     -2.188253   -4.238821   -2.175384
  H     -2.266870   -4.806482   -0.494951
  H     -0.739978   -4.159482   -1.152437
  H     -2.857830   -0.269488    0.679982
  H     -4.413296    0.029727    1.477788
  H     -4.271452    0.178937   -0.295844
  H     -6.217939   -1.503215   -0.566221
  H     -6.333473   -1.578907    1.195267
  H     -6.127746   -3.081302    0.271795
  Li    -4.870376   -3.022960   -2.065788

 Total Charge           Charge          ....    0
 Multiplicity           Mult            ....    1
 Number of Electrons    NEL             ....   60
 Basis Dimension        Dim             ....  854

ORBITAL ENERGIES
----------------

  NO   OCC          E(Eh)            E(eV)
   0   2.0000     -14.362080      -390.8121
   1   2.0000     -10.297867      -280.2192
   2   2.0000     -10.294250      -280.1208
   3   2.0000     -10.273455      -279.5549
   4   2.0000     -10.264558      -279.3128
   5   2.0000     -10.262337      -279.2524
   6   2.0000     -10.261492      -279.2294
   7   2.0000      -2.018138       -54.9163
   8   2.0000      -0.865886       -23.5620
   9   2.0000      -0.783756       -21.3271
  10   2.0000      -0.709472       -19.3057
  11   2.0000      -0.692127       -18.8337
  12   2.0000      -0.682616       -18.5749
  13   2.0000      -0.576375       -15.6840
  14   2.0000      -0.541249       -14.7281
  15   2.0000      -0.468656       -12.7528
  16   2.0000      -0.455783       -12.4025
  17   2.0000      -0.432109       -11.7583
  18   2.0000      -0.418334       -11.3835
  19   2.0000      -0.403182       -10.9712
  20   2.0000      -0.393687       -10.7128
  21   2.0000      -0.383964       -10.4482
  22   2.0000      -0.381275       -10.3750
  23   2.0000      -0.354498        -9.6464
  24   2.0000      -0.347750        -9.4628
  25   2.0000      -0.341383        -9.2895
  26   2.0000      -0.323858        -8.8126
  27   2.0000      -0.309245        -8.4150
  28   2.0000      -0.252555        -6.8724
  29   2.0000      -0.167593        -4.5604
  30   0.0000      -0.015046        -0.4094
  31   0.0000       0.013563         0.3691
  32   0.0000       0.014672         0.3992
  33   0.0000       0.019174         0.5218
  34   0.0000       0.059438         1.6174

MULLIKEN ATOMIC CHARGES
-----------------------
   0 N :   -0.353250
   1 C :    0.138663
   2 C :    0.018894
   3 C :   -0.279139
   4 C :   -0.314305
   5 H :   -0.005207
   6 C :   -0.282168
   7 H :    0.025689
   8 C :   -0.293605
   9 H :    0.079311
  10 H :    0.071225
  11 H :    0.066274
  12 H :    0.064927
  13 H :    0.090607
  14 H :    0.084196
  15 H :    0.082747
  16 H :    0.075552
  17 H :    0.090398
  18 H :    0.082128
  19 H :    0.097909
  20 H :    0.101098
  21 Li:    0.358055
Sum of atomic charges:   -0.0000000

LOEWDIN ATOMIC CHARGES
----------------------
   0 N :    0.345192
   1 C :   -0.220731
   2 C :   -0.225109
   3 C :    0.218274
   4 C :    0.229837
   5 H :   -0.049848
   6 C :    0.218228
   7 H :   -0.048932
   8 C :    0.277225
   9 H :   -0.054393
  10 H :   -0.065059
  11 H :   -0.066705
  12 H :   -0.040349
  13 H :   -0.056993
  14 H :   -0.061654
  15 H :   -0.064852
  16 H :   -0.064215
  17 H :   -0.058029
  18 H :   -0.014209
  19 H :   -0.050705
  20 H :   -0.023950
  21 Li:   -0.123023

  Mayer bond orders larger than 0.100000
B(  0-N ,  1-C ) :   1.0287 B(  0-N ,  2-C ) :   1.1376 B(  0-N , 21-Li) :   0.9688
B(  1-C ,  3-C ) :   0.9633 B(  1-C ,  4-C ) :   0.9595 B(  1-C ,  5-H ) :   0.9136
B(  2-C ,  6-C ) :   0.9561 B(  2-C ,  7-H ) :   0.9225 B(  2-C ,  8-C ) :   0.9721
B(  3-C ,  9-H ) :   0.9656 B(  3-C , 10-H ) :   0.9656 B(  3-C , 11-H ) :   0.9743
B(  4-C , 12-H ) :   0.9654 B(  4-C , 13-H ) :   0.9717 B(  4-C , 14-H ) :   0.9697
B(  6-C , 15-H ) :   0.9614 B(  6-C , 16-H ) :   0.9650 B(  6-C , 17-H ) :   0.9588
B(  8-C , 18-H ) :   0.9499 B(  8-C , 19-H ) :   0.9635 B(  8-C , 20-H ) :   0.9601

Dispersion correction           -0.010176074
FINAL SINGLE POINT ENERGY      -299.876501505269

DIPOLE MOMENT
-------------
                                X             Y             Z
Electronic contribution:     -5.44585      -3.82134      -5.21396
Nuclear contribution   :      3.86305       3.09838       3.66548
                        -----------------------------------------
Total Dipole Moment    :     -1.58280      -0.72297      -1.54848
                        -----------------------------------------
Magnitude (a.u.)       :      2.32932
Magnitude (Debye)      :      5.92065

Rotational constants in cm-1:     0.106890     0.048972     0.040187
Rotational constants in MHz :  3204.476560  1468.153555  1204.771904

                             ****ORCA TERMINATED NORMALLY****
TOTAL RUN TIME: 0 days 0 hours 8 minutes 43 seconds 176 msec
