   * xtb version 6.4.1 (afa7bdf) compiled by 'ehlert@majestix' on 2021-06-10
          program call               : xtb Aldol_Cry.xyz --opt --alpb thf
          number of atoms            :                    39
          number of electrons        :                   118
          charge                     :                     0

   ID    Z sym.   atoms
    1    6 C      1-7, 12-19, 28, 33, 36
    2    1 H      8-11, 20-24, 29-31, 37-39
    3    8 O      25-27, 34, 35
    4    3 Li     32

        Solvent                        thf
        Solvent mass                       7.2106E+01 g/mol
          :  Hamiltonian                  GFN2-xTB          :
 * total energy  :   -66.8679226 Eh     change       -0.5710064E-09 Eh
 * total energy  :   -66.8906099 Eh     change       -0.2268731E-01 Eh
 * total energy  :   -66.9021235 Eh     change       -0.1151359E-01 Eh
 * total energy  :   -66.9043684 Eh     change       -0.2244923E-02 Eh
 * total energy  :   -66.9053409 Eh     change       -0.9724663E-03 Eh
 * total energy  :   -66.9056363 Eh     change       -0.2953637E-03 Eh
 * total energy  :   -66.9058269 Eh     change       -0.1906548E-03 Eh
 * total energy  :   -66.9059821 Eh     change       -0.1551424E-03 Eh
 * total energy  :   -66.9061205 Eh     change       -0.1384586E-03 Eh
 * total energy  :   -66.9062171 Eh     change       -0.9652998E-04 Eh
 * total energy  :   -66.9084760 Eh     change       -0.1791576E-04 Eh
 * total energy  :   -66.9084948 Eh     change       -0.1883438E-04 Eh
 * total energy  :   -66.9085152 Eh     change       -0.2038152E-04 Eh
 * total energy  :   -66.9085370 Eh     change       -0.2186030E-04 Eh
 * total energy  :   -66.9085585 Eh     change       -0.2149223E-04 Eh
 * total energy  :   -66.9085768 Eh     change       -0.1830740E-04 Eh
 * total energy  :   -66.9085919 Eh     change       -0.1506333E-04 Eh
 * total energy  :   -66.9086039 Eh     change       -0.1198559E-04 Eh
 * total energy  :   -66.9086079 Eh     change       -0.3979655E-05 Eh
   *** GEOMETRY OPTIMIZATION CONVERGED AFTER 68 ITERATIONS ***

 final structure:
================
39
 xtb: 6.4.1 (afa7bdf)
C        -5.06473802321747   -0.08461042010810    0.21009624509569
C        -5.16617045962520   -1.45775027547744   -0.00920740873201
C        -4.02569995404491   -2.18743214225424   -0.34332449723516
C        -2.80305019316509   -1.55793352413384   -0.45833855387515
C        -2.69528680699477   -0.18515385231650   -0.24007713662487
C        -3.84052475903621    0.54044509854754    0.08847918082753
C        -1.40678854789076    0.54848923964513   -0.40771600730913
H        -3.74788145062861    1.60480993231450    0.24259555358769
H        -5.94652776594719    0.48048324622726    0.46581715769162
H        -4.12389869889584   -3.24825475133535   -0.51839236092460
H        -1.93485577847519   -2.12826935003008   -0.74697377475644
C        -0.21525780734539   -0.10900492156817   -0.09629070408021
C         1.04617567134891    0.47325806528997   -0.28323997724847
C         2.26688992019173   -0.32114714898133    0.02552496387005
C         2.29253696515538   -1.71034568538045   -0.09340348401708
C         3.45910585369174   -2.41246416085930    0.18022911192294
C         4.60648926337402   -1.71889504454373    0.57423669583304
C         4.58089293023648   -0.34367768145007    0.68296574540516
C         3.42027007505712    0.35814455457858    0.40556311791246
H         3.38784155175873    1.43379914810403    0.48240045767376
H         1.40837590442795   -2.22707241213166   -0.42669131611622
H         5.50114430369533   -2.28417105946196    0.78154556969938
H         5.47277980767591    0.18566893922504    0.98151428619595
H        -0.27185737664755   -1.09496324806249    0.33078652123555
O         1.21444282841879    1.65455422235761   -0.70457285103207
O        -1.47652249673646    1.73987575123867   -0.83218225620661
O         3.58985553017002   -3.76575299486799    0.09262219529856
C         2.46636475575920   -4.54049962784494   -0.27413755238512
H         1.64958484328761   -4.42039248406424    0.44361466319171
H         2.81216557789627   -5.57256786764241   -0.26113492844369
H         2.11626829806283   -4.28612473964078   -1.27879444751937
Li       -0.07901658354919    2.72116458548089   -1.16712282138197
C        -6.45980988347264   -2.17203547436064    0.07610558798094
O        -7.48565723540056   -1.36166158244568    0.35170639363009
O        -6.59187269264676   -3.36653973872257   -0.09306078172371
C        -8.77479068765893   -1.96462328028193    0.43780726442678
H        -8.98587304443535   -2.53290734922007   -0.47002030841328
H        -9.47787351280386   -1.14488291817478    0.55621495091655
H        -8.81737035548917   -2.63948412584707    1.29485541183413

          :  Hamiltonian                  GFN2-xTB          :
         :: total energy             -66.908607861387 Eh    ::
         :: gradient norm              0.000237500465 Eh/a0 ::
         :: HOMO-LUMO gap              2.365611116050 eV    ::
         :: SCC energy               -67.826506169565 Eh    ::
         :: -> dispersion             -0.039708567205 Eh    ::
         :: -> Gsolv                  -0.046513432691 Eh    ::
         :: repulsion energy           0.918220421160 Eh    ::

    * Orbital Energies and Occupations

         #    Occupation            Energy/Eh            Energy/eV
      -------------------------------------------------------------
         1        2.0000           -0.7477691             -20.3478
       ...           ...                  ...                  ...
        47        2.0000           -0.4505923             -12.2612
        48        2.0000           -0.4490556             -12.2194
        49        2.0000           -0.4380508             -11.9200
        50        2.0000           -0.4334576             -11.7950
        51        2.0000           -0.4317204             -11.7477
        52        2.0000           -0.4220586             -11.4848
        53        2.0000           -0.4213107             -11.4644
        54        2.0000           -0.4200524             -11.4302
        55        2.0000           -0.4118687             -11.2075
        56        2.0000           -0.4086093             -11.1188
        57        2.0000           -0.3849803             -10.4758
        58        2.0000           -0.3790910             -10.3156
        59        2.0000           -0.3787352             -10.3059 (HOMO)
        60                         -0.2918006              -7.9403 (LUMO)
        61                         -0.2643596              -7.1936
        62                         -0.2370243              -6.4498
        63                         -0.2236802              -6.0866
        64                         -0.2167965              -5.8993
        65                         -0.1968001              -5.3552
        66                         -0.1862179              -5.0672
        67                         -0.1433659              -3.9012
        68                         -0.0899408              -2.4474
        69                         -0.0817742              -2.2252
        70                         -0.0215088              -0.5853
       ...                                ...                  ...
       111                          0.6830325              18.5863
      -------------------------------------------------------------
                  HL-Gap            0.0869346 Eh            2.3656 eV

     #   Z          covCN         q      C6AA      α(0)
     1   6 C        2.918    -0.026    28.650     8.777
     2   6 C        2.972    -0.021    28.518     8.760
     3   6 C        2.922    -0.023    28.571     8.765
     4   6 C        2.920    -0.031    28.785     8.798
     5   6 C        2.973     0.002    27.980     8.677
     6   6 C        2.924    -0.024    28.596     8.769
     7   6 C        3.141     0.196    23.623     7.954
     8   1 H        0.926     0.068     2.111     2.272
     9   1 H        0.926     0.071     2.080     2.255
    10   1 H        0.926     0.069     2.099     2.266
    11   1 H        0.926     0.059     2.215     2.327
    12   6 C        2.929    -0.153    31.935     9.268
    13   6 C        3.133     0.199    23.589     7.951
    14   6 C        2.973    -0.012    28.308     8.727
    15   6 C        2.919    -0.071    29.779     8.949
    16   6 C        2.861     0.144    24.873     8.175
    17   6 C        2.920    -0.057    29.413     8.894
    18   6 C        2.917    -0.034    28.848     8.808
    19   6 C        2.924    -0.039    28.958     8.825
    20   1 H        0.926     0.054     2.268     2.355
    21   1 H        0.926     0.047     2.353     2.399
    22   1 H        0.926     0.061     2.186     2.312
    23   1 H        0.926     0.055     2.257     2.349
    24   1 H        0.926     0.050     2.317     2.381
    25   8 O        1.519    -0.504    23.095     6.482
    26   8 O        1.519    -0.507    23.153     6.490
    27   8 O        1.705    -0.284    18.707     5.840
    28   6 C        3.641     0.020    20.586     6.524
    29   1 H        0.924     0.050     2.314     2.379
    30   1 H        0.925     0.079     1.992     2.207
    31   1 H        0.924     0.051     2.312     2.378
    32   3 Li       1.971     0.631    31.745    17.041
    33   6 C        2.727     0.350    21.050     7.511
    34   8 O        1.704    -0.265    18.389     5.790
    35   8 O        0.856    -0.457    22.851     6.409
    36   6 C        3.652     0.014    20.644     6.525
    37   1 H        0.924     0.073     2.058     2.243
    38   1 H        0.925     0.092     1.864     2.135
    39   1 H        0.924     0.072     2.063     2.246

Wiberg/Mayer (AO) data.
largest (>0.10) Wiberg bond orders for each atom

     #   Z sym  total        # sym  WBO       # sym  WBO       # sym  WBO
 ---------------------------------------------------------------------------
     1   6 C    3.987 --     6 C    1.467     2 C    1.378     9 H    0.964
                             4 C    0.102
     2   6 C    3.981 --     1 C    1.378     3 C    1.378    33 C    1.010
     3   6 C    3.987 --     4 C    1.466     2 C    1.378    10 H    0.964
                             6 C    0.102
     4   6 C    3.989 --     3 C    1.466     5 C    1.383    11 H    0.964
                             1 C    0.102
     5   6 C    3.986 --     4 C    1.383     6 C    1.383     7 C    1.008
     6   6 C    3.987 --     1 C    1.467     5 C    1.383     8 H    0.964
                             3 C    0.102
     7   6 C    3.940 --    26 O    1.435    12 C    1.358     5 C    1.008
     8   1 H    0.995 --     6 C    0.964
     9   1 H    0.994 --     1 C    0.964
    10   1 H    0.995 --     3 C    0.964
    11   1 H    0.996 --     4 C    0.964
    12   6 C    3.957 --     7 C    1.358    13 C    1.330    24 H    0.961
                            26 O    0.107
    13   6 C    3.935 --    25 O    1.446    12 C    1.330    14 C    1.018
    14   6 C    3.987 --    19 C    1.395    15 C    1.381    13 C    1.018
                            17 C    0.102
    15   6 C    3.987 --    16 C    1.390    14 C    1.381    21 H    0.960
    16   6 C    3.937 --    15 C    1.390    17 C    1.340    27 O    1.064
    17   6 C    3.980 --    18 C    1.465    16 C    1.340    22 H    0.967
                            14 C    0.102
    18   6 C    3.990 --    17 C    1.465    19 C    1.429    23 H    0.968
    19   6 C    3.989 --    18 C    1.429    14 C    1.395    20 H    0.966
    20   1 H    0.997 --    19 C    0.966
    21   1 H    0.998 --    15 C    0.960
    22   1 H    0.996 --    17 C    0.967
    23   1 H    0.996 --    18 C    0.968
    24   1 H    0.997 --    12 C    0.961
    25   8 O    2.056 --    13 C    1.446    32 Li   0.328
    26   8 O    2.051 --     7 C    1.435    32 Li   0.329    12 C    0.107
    27   8 O    2.223 --    16 C    1.064    28 C    0.976
    28   6 C    3.936 --    30 H    0.978    29 H    0.977    31 H    0.976
                            27 O    0.976
    29   1 H    0.997 --    28 C    0.977
    30   1 H    0.993 --    28 C    0.978
    31   1 H    0.997 --    28 C    0.976
    32   3 Li   0.692 --    26 O    0.329    25 O    0.328
    33   6 C    3.914 --    35 O    1.691    34 O    1.137     2 C    1.010
    34   8 O    2.308 --    33 C    1.137    36 C    0.948    35 O    0.168
    35   8 O    1.991 --    33 C    1.691    34 O    0.168
    36   6 C    3.912 --    38 H    0.978    37 H    0.976    39 H    0.975
                            34 O    0.948
    37   1 H    0.994 --    36 C    0.976
    38   1 H    0.991 --    36 C    0.978
    39   1 H    0.994 --    36 C    0.975
 ---------------------------------------------------------------------------

molecular dipole:
                 x           y           z       tot (Debye)
 q only:        0.017       0.983      -0.025
   full:       -0.166       1.125      -0.121       2.906

           -------------------------------------------------
          | TOTAL ENERGY              -66.908607861387 Eh   |
          | GRADIENT NORM               0.000237500465 Eh/α |
          | HOMO-LUMO GAP               2.365611116050 eV   |
           -------------------------------------------------

 * finished run on 2022/04/13 at 10:31:39.898
