                         Program Version 5.0.2 -  RELEASE  -
|  1> ! PW6B95 D3BJ def2-QZVP RIJK def2/JK tightSCF CPCM(THF)
|  2> ! sp Pal8
|  3>
|  4> * xyz 0 1
|  5>   C   -5.07844952407575     -0.07627329415885      0.09142718468068
|  6>   C   -5.13396059371650     -1.47171514752160     -0.04275350297014
|  7>   C   -3.95623835425438     -2.18543973507416     -0.30512571303270
|  8>   C   -2.74222762630177     -1.51989146432927     -0.42020651273428
|  9>   C   -2.67768689698617     -0.12282299466208     -0.28570042177787
| 10>   C   -3.86401499355580      0.58623342794768     -0.03825140749860
| 11>   C   -1.39849122951298      0.64856037192123     -0.41999181290736
| 12>   H   -3.81356472612589      1.66594053272608      0.05570368184179
| 13>   H   -5.98521672480884      0.48249555387712      0.29493026069712
| 14>   H   -4.00757214254998     -3.26314901509468     -0.42143924514813
| 15>   H   -1.84574633349555     -2.08973409294583     -0.64173396940253
| 16>   C   -0.17898763742363     -0.02333711576740     -0.19384889053873
| 17>   C   1.10839021141416      0.56070022060472     -0.27246242850522
| 18>   C   2.30952477112564     -0.29083565560991      0.00649980683202
| 19>   C   2.26011603905550     -1.69392954505042     -0.07522786420480
| 20>   C   3.40392656865780     -2.44999850813269      0.19209677493177
| 21>   C   4.60239942267360     -1.81318127146248      0.54871128230431
| 22>   C   4.64622688291306     -0.42493132058662      0.62549546434627
| 23>   C   3.51178461971038      0.33989624416658      0.34992850154600
| 24>   H   3.54035999166588      1.42245299598135      0.40596138320340
| 25>   H   1.34149602497531     -2.18518407231197     -0.37031668426949
| 26>   H   5.48007824145152     -2.41831761778888      0.75603074544620
| 27>   H   5.57568027558636      0.06414847702250      0.90381557073769
| 28>   H   -0.23632878801319     -1.06042683868337      0.10808475241509
| 29>   O   1.32506698700067      1.79104461840886     -0.54921667870684
| 30>   O   -1.51099132265527      1.88995755982771     -0.71556464354982
| 31>   O   3.45064673770405     -3.81709139278245      0.12586233967015
| 32>   C   2.23384185533007     -4.50168172697765     -0.21937387969253
| 33>   H   1.44651472615401     -4.28524776902974      0.51174793146119
| 34>   H   2.48292575800338     -5.56248163656822     -0.19818156021522
| 35>   H   1.89818512727694     -4.21493830719884     -1.22258203737573
| 36>   Li  -0.03979596429930      2.92686200149540     -0.88629104465691
| 37>   C   -6.40527113747788     -2.23207541127309      0.07742472403465
| 38>   O   -7.46467391870574     -1.43027498449222      0.32860544450661
| 39>   O   -6.50093873966361     -3.44627056520853     -0.03495305899136
| 40>   C   -8.74021812257645     -2.11306188282512      0.45819708645356
| 41>   H   -8.97533456265619     -2.63853718290656     -0.46990219908174
| 42>   H   -9.46329776799355     -1.32305783252879      0.65500648164905
| 43>   H   -8.69829716774892     -2.82233070120636      1.28759404470688
| 44> *
| 45>
| 46>                          ****END OF INPUT****

CARTESIAN COORDINATES (ANGSTROEM)
---------------------------------
  C     -5.078450   -0.076273    0.091427
  C     -5.133961   -1.471715   -0.042754
  C     -3.956238   -2.185440   -0.305126
  C     -2.742228   -1.519891   -0.420207
  C     -2.677687   -0.122823   -0.285700
  C     -3.864015    0.586233   -0.038251
  C     -1.398491    0.648560   -0.419992
  H     -3.813565    1.665941    0.055704
  H     -5.985217    0.482496    0.294930
  H     -4.007572   -3.263149   -0.421439
  H     -1.845746   -2.089734   -0.641734
  C     -0.178988   -0.023337   -0.193849
  C      1.108390    0.560700   -0.272462
  C      2.309525   -0.290836    0.006500
  C      2.260116   -1.693930   -0.075228
  C      3.403927   -2.449999    0.192097
  C      4.602399   -1.813181    0.548711
  C      4.646227   -0.424931    0.625495
  C      3.511785    0.339896    0.349929
  H      3.540360    1.422453    0.405961
  H      1.341496   -2.185184   -0.370317
  H      5.480078   -2.418318    0.756031
  H      5.575680    0.064148    0.903816
  H     -0.236329   -1.060427    0.108085
  O      1.325067    1.791045   -0.549217
  O     -1.510991    1.889958   -0.715565
  O      3.450647   -3.817091    0.125862
  C      2.233842   -4.501682   -0.219374
  H      1.446515   -4.285248    0.511748
  H      2.482926   -5.562482   -0.198182
  H      1.898185   -4.214938   -1.222582
  Li    -0.039796    2.926862   -0.886291
  C     -6.405271   -2.232075    0.077425
  O     -7.464674   -1.430275    0.328605
  O     -6.500939   -3.446271   -0.034953
  C     -8.740218   -2.113062    0.458197
  H     -8.975335   -2.638537   -0.469902
  H     -9.463298   -1.323058    0.655006
  H     -8.698297   -2.822331    1.287594

 Total Charge           Charge          ....    0
 Multiplicity           Mult            ....    1
 Number of Electrons    NEL             ....  166
 Basis Dimension        Dim             .... 1796

ORBITAL ENERGIES
----------------

  NO   OCC          E(Eh)            E(eV)
   0   2.0000     -19.347725      -526.4784
   1   2.0000     -19.330104      -525.9989
   2   2.0000     -19.291826      -524.9573
   3   2.0000     -19.272331      -524.4268
   4   2.0000     -19.272164      -524.4222
   5   2.0000     -10.437702      -284.0243
   6   2.0000     -10.381561      -282.4966
   7   2.0000     -10.381515      -282.4954
   8   2.0000     -10.366827      -282.0957
   9   2.0000     -10.347729      -281.5760
  10   2.0000     -10.344585      -281.4905
  11   2.0000     -10.327550      -281.0269
  12   2.0000     -10.323897      -280.9275
  13   2.0000     -10.316774      -280.7337
  14   2.0000     -10.316084      -280.7149
  15   2.0000     -10.315970      -280.7118
  16   2.0000     -10.314812      -280.6803
  17   2.0000     -10.311377      -280.5868
  18   2.0000     -10.306689      -280.4593
  19   2.0000     -10.306390      -280.4511
  20   2.0000     -10.304206      -280.3917
  21   2.0000     -10.299302      -280.2583
  22   2.0000     -10.280210      -279.7387
  23   2.0000      -2.005313       -54.5673
  24   2.0000      -1.139011       -30.9941
  25   2.0000      -1.095319       -29.8051
  26   2.0000      -1.052830       -28.6489
  27   2.0000      -1.051433       -28.6110
  28   2.0000      -1.040002       -28.2999
  29   2.0000      -0.899334       -24.4721
  30   2.0000      -0.885521       -24.0963
  31   2.0000      -0.819197       -22.2915
  32   2.0000      -0.801440       -21.8083
  33   2.0000      -0.784550       -21.3487
  34   2.0000      -0.778316       -21.1791
  35   2.0000      -0.767925       -20.8963
  36   2.0000      -0.744999       -20.2724
  37   2.0000      -0.720949       -19.6180
  38   2.0000      -0.685554       -18.6549
  39   2.0000      -0.656910       -17.8754
  40   2.0000      -0.637878       -17.3575
  41   2.0000      -0.622650       -16.9432
  42   2.0000      -0.601446       -16.3662
  43   2.0000      -0.588300       -16.0085
  44   2.0000      -0.568301       -15.4643
  45   2.0000      -0.555412       -15.1135
  46   2.0000      -0.537767       -14.6334
  47   2.0000      -0.516731       -14.0610
  48   2.0000      -0.508449       -13.8356
  49   2.0000      -0.507093       -13.7987
  50   2.0000      -0.505274       -13.7492
  51   2.0000      -0.498506       -13.5650
  52   2.0000      -0.487659       -13.2699
  53   2.0000      -0.483559       -13.1583
  54   2.0000      -0.474863       -12.9217
  55   2.0000      -0.469359       -12.7719
  56   2.0000      -0.461941       -12.5701
  57   2.0000      -0.456717       -12.4279
  58   2.0000      -0.449540       -12.2326
  59   2.0000      -0.438733       -11.9385
  60   2.0000      -0.435165       -11.8415
  61   2.0000      -0.431765       -11.7489
  62   2.0000      -0.427315       -11.6278
  63   2.0000      -0.415386       -11.3032
  64   2.0000      -0.410278       -11.1642
  65   2.0000      -0.395990       -10.7754
  66   2.0000      -0.393671       -10.7123
  67   2.0000      -0.388137       -10.5617
  68   2.0000      -0.384473       -10.4620
  69   2.0000      -0.377640       -10.2761
  70   2.0000      -0.374271       -10.1844
  71   2.0000      -0.364751        -9.9254
  72   2.0000      -0.357237        -9.7209
  73   2.0000      -0.342535        -9.3209
  74   2.0000      -0.333713        -9.0808
  75   2.0000      -0.312202        -8.4954
  76   2.0000      -0.310119        -8.4388
  77   2.0000      -0.286791        -7.8040
  78   2.0000      -0.283790        -7.7223
  79   2.0000      -0.280225        -7.6253
  80   2.0000      -0.277031        -7.5384
  81   2.0000      -0.246546        -6.7089
  82   2.0000      -0.237569        -6.4646
  83   0.0000      -0.081100        -2.2069
  84   0.0000      -0.044512        -1.2112
  85   0.0000      -0.017771        -0.4836
  86   0.0000      -0.006218        -0.1692
  87   0.0000      -0.004700        -0.1279

MULLIKEN ATOMIC CHARGES
-----------------------
   0 C :   -0.122713
   1 C :    0.047474
   2 C :   -0.113436
   3 C :   -0.119588
   4 C :    0.112479
   5 C :   -0.126336
   6 C :    0.188851
   7 H :    0.119810
   8 H :    0.127817
   9 H :    0.127142
  10 H :    0.128982
  11 C :   -0.209184
  12 C :    0.171818
  13 C :    0.069673
  14 C :   -0.076453
  15 C :    0.111837
  16 C :   -0.085265
  17 C :   -0.153684
  18 C :   -0.136628
  19 H :    0.113041
  20 H :    0.113557
  21 H :    0.126529
  22 H :    0.129238
  23 H :    0.068571
  24 O :   -0.394116
  25 O :   -0.404391
  26 O :   -0.373755
  27 C :   -0.084058
  28 H :    0.108193
  29 H :    0.131425
  30 H :    0.109824
  31 Li:    0.416492
  32 C :    0.360119
  33 O :   -0.350827
  34 O :   -0.426775
  35 C :   -0.085431
  36 H :    0.127476
  37 H :    0.125608
  38 H :    0.126686
Sum of atomic charges:    0.0000000

LOEWDIN ATOMIC CHARGES
----------------------
   0 C :    0.100735
   1 C :   -0.111194
   2 C :    0.103169
   3 C :    0.101523
   4 C :   -0.066003
   5 C :    0.105722
   6 C :   -0.362884
   7 H :   -0.044530
   8 H :   -0.049022
   9 H :   -0.044693
  10 H :   -0.046063
  11 C :    0.065321
  12 C :   -0.358471
  13 C :   -0.085045
  14 C :    0.085307
  15 C :   -0.346912
  16 C :    0.076532
  17 C :    0.063852
  18 C :    0.082766
  19 H :   -0.051616
  20 H :   -0.056714
  21 H :   -0.050906
  22 H :   -0.051578
  23 H :   -0.064205
  24 O :    0.484806
  25 O :    0.480775
  26 O :    0.494284
  27 C :    0.071963
  28 H :   -0.061382
  29 H :   -0.063411
  30 H :   -0.061330
  31 Li:   -0.302717
  32 C :   -0.740224
  33 O :    0.502762
  34 O :    0.287581
  35 C :    0.100033
  36 H :   -0.061514
  37 H :   -0.065120
  38 H :   -0.061597

  Mayer bond orders larger than 0.100000
B(  0-C ,  1-C ) :   1.2952 B(  0-C ,  5-C ) :   1.3885 B(  0-C ,  8-H ) :   0.9486
B(  1-C ,  2-C ) :   1.2891 B(  1-C , 32-C ) :   1.0222 B(  2-C ,  3-C ) :   1.3925
B(  2-C ,  9-H ) :   0.9455 B(  3-C ,  4-C ) :   1.2785 B(  3-C , 10-H ) :   0.9514
B(  4-C ,  5-C ) :   1.2873 B(  4-C ,  6-C ) :   0.9481 B(  5-C ,  7-H ) :   0.9527
B(  6-C , 11-C ) :   1.2945 B(  6-C , 25-O ) :   1.5309 B( 11-C , 12-C ) :   1.2749
B( 11-C , 23-H ) :   0.9616 B( 12-C , 13-C ) :   0.9584 B( 12-C , 24-O ) :   1.5495
B( 13-C , 14-C ) :   1.2570 B( 13-C , 18-C ) :   1.3336 B( 14-C , 15-C ) :   1.3266
B( 14-C , 20-H ) :   0.9520 B( 15-C , 16-C ) :   1.3289 B( 15-C , 26-O ) :   1.1064
B( 16-C , 17-C ) :   1.4049 B( 16-C , 21-H ) :   0.9396 B( 17-C , 18-C ) :   1.3778
B( 17-C , 22-H ) :   0.9519 B( 18-C , 19-H ) :   0.9523 B( 24-O , 31-Li) :   0.5159
B( 25-O , 31-Li) :   0.5205 B( 26-O , 27-C ) :   0.8977 B( 27-C , 28-H ) :   0.9597
B( 27-C , 29-H ) :   0.9688 B( 27-C , 30-H ) :   0.9619 B( 32-C , 33-O ) :   1.1978
B( 32-C , 34-O ) :   1.8950 B( 33-O , 35-C ) :   0.8495 B( 35-C , 36-H ) :   0.9629
B( 35-C , 37-H ) :   0.9626 B( 35-C , 38-H ) :   0.9627

Dispersion correction           -0.025337223
FINAL SINGLE POINT ENERGY     -1080.558398126198

DIPOLE MOMENT
-------------
                                X             Y             Z
Electronic contribution:      3.62466      17.27669      -3.14734
Nuclear contribution   :     -3.97037     -16.05803       3.03461
                        -----------------------------------------
Total Dipole Moment    :     -0.34572       1.21866      -0.11273
                        -----------------------------------------
Magnitude (a.u.)       :      1.27175
Magnitude (Debye)      :      3.23254

Rotational constants in cm-1:     0.015307     0.003114     0.002619
Rotational constants in MHz :   458.893823    93.361246    78.521762

                             ****ORCA TERMINATED NORMALLY****
TOTAL RUN TIME: 0 days 0 hours 33 minutes 25 seconds 563 msec
