                         Program Version 5.0.2 -  RELEASE  -
|  1> ! TPSS D3BJ def2-TZVP RI def2/J CPCM(THF)
|  2> ! Opt numfreq Pal4
|  3> ! SlowConv
|  4>
|  5> * xyz 0 1
|  6> C        -5.06473802321747   -0.08461042010810    0.21009624509569
|  7> C        -5.16617045962520   -1.45775027547744   -0.00920740873201
|  8> C        -4.02569995404491   -2.18743214225424   -0.34332449723516
|  9> C        -2.80305019316509   -1.55793352413384   -0.45833855387515
| 10> C        -2.69528680699477   -0.18515385231650   -0.24007713662487
| 11> C        -3.84052475903621    0.54044509854754    0.08847918082753
| 12> C        -1.40678854789076    0.54848923964513   -0.40771600730913
| 13> H        -3.74788145062861    1.60480993231450    0.24259555358769
| 14> H        -5.94652776594719    0.48048324622726    0.46581715769162
| 15> H        -4.12389869889584   -3.24825475133535   -0.51839236092460
| 16> H        -1.93485577847519   -2.12826935003008   -0.74697377475644
| 17> C        -0.21525780734539   -0.10900492156817   -0.09629070408021
| 18> C         1.04617567134891    0.47325806528997   -0.28323997724847
| 19> C         2.26688992019173   -0.32114714898133    0.02552496387005
| 20> C         2.29253696515538   -1.71034568538045   -0.09340348401708
| 21> C         3.45910585369174   -2.41246416085930    0.18022911192294
| 22> C         4.60648926337402   -1.71889504454373    0.57423669583304
| 23> C         4.58089293023648   -0.34367768145007    0.68296574540516
| 24> C         3.42027007505712    0.35814455457858    0.40556311791246
| 25> H         3.38784155175873    1.43379914810403    0.48240045767376
| 26> H         1.40837590442795   -2.22707241213166   -0.42669131611622
| 27> H         5.50114430369533   -2.28417105946196    0.78154556969938
| 28> H         5.47277980767591    0.18566893922504    0.98151428619595
| 29> H        -0.27185737664755   -1.09496324806249    0.33078652123555
| 30> O         1.21444282841879    1.65455422235761   -0.70457285103207
| 31> O        -1.47652249673646    1.73987575123867   -0.83218225620661
| 32> O         3.58985553017002   -3.76575299486799    0.09262219529856
| 33> C         2.46636475575920   -4.54049962784494   -0.27413755238512
| 34> H         1.64958484328761   -4.42039248406424    0.44361466319171
| 35> H         2.81216557789627   -5.57256786764241   -0.26113492844369
| 36> H         2.11626829806283   -4.28612473964078   -1.27879444751937
| 37> Li       -0.07901658354919    2.72116458548089   -1.16712282138197
| 38> C        -6.45980988347264   -2.17203547436064    0.07610558798094
| 39> O        -7.48565723540056   -1.36166158244568    0.35170639363009
| 40> O        -6.59187269264676   -3.36653973872257   -0.09306078172371
| 41> C        -8.77479068765893   -1.96462328028193    0.43780726442678
| 42> H        -8.98587304443535   -2.53290734922007   -0.47002030841328
| 43> H        -9.47787351280386   -1.14488291817478    0.55621495091655
| 44> H        -8.81737035548917   -2.63948412584707    1.29485541183413
| 45> *
| 46>
| 47>                          ****END OF INPUT****
 Total Charge           Charge          ....    0
 Multiplicity           Mult            ....    1
 Number of Electrons    NEL             ....  166
Dispersion correction           -0.060432833
FINAL SINGLE POINT ENERGY     -1079.346353501676
Dispersion correction            ... done
Dispersion correction           -0.060240677
FINAL SINGLE POINT ENERGY     -1079.350231360695
Dispersion correction            ... done
Dispersion correction           -0.060239891
FINAL SINGLE POINT ENERGY     -1079.351187021737
Dispersion correction            ... done
FINAL SINGLE POINT ENERGY     -1079.351492370452
FINAL SINGLE POINT ENERGY     -1079.351960429937
FINAL SINGLE POINT ENERGY     -1079.352143176534
FINAL SINGLE POINT ENERGY     -1079.352243489576
FINAL SINGLE POINT ENERGY     -1079.352278069444
FINAL SINGLE POINT ENERGY     -1079.352295027748
FINAL SINGLE POINT ENERGY     -1079.352302225759
FINAL SINGLE POINT ENERGY     -1079.352306643312
Dispersion correction            ... done
Dispersion correction           -0.060400213
FINAL SINGLE POINT ENERGY     -1079.352308672354
Dispersion correction            ... done
Dispersion correction           -0.060402817
FINAL SINGLE POINT ENERGY     -1079.352309389655
Dispersion correction            ... done
                    ***********************HURRAY********************

CARTESIAN COORDINATES (ANGSTROEM)
---------------------------------
  C     -5.078450   -0.076273    0.091427
  C     -5.133961   -1.471715   -0.042754
  C     -3.956238   -2.185440   -0.305126
  C     -2.742228   -1.519891   -0.420207
  C     -2.677687   -0.122823   -0.285700
  C     -3.864015    0.586233   -0.038251
  C     -1.398491    0.648560   -0.419992
  H     -3.813565    1.665941    0.055704
  H     -5.985217    0.482496    0.294930
  H     -4.007572   -3.263149   -0.421439
  H     -1.845746   -2.089734   -0.641734
  C     -0.178988   -0.023337   -0.193849
  C      1.108390    0.560700   -0.272462
  C      2.309525   -0.290836    0.006500
  C      2.260116   -1.693930   -0.075228
  C      3.403927   -2.449999    0.192097
  C      4.602399   -1.813181    0.548711
  C      4.646227   -0.424931    0.625495
  C      3.511785    0.339896    0.349929
  H      3.540360    1.422453    0.405961
  H      1.341496   -2.185184   -0.370317
  H      5.480078   -2.418318    0.756031
  H      5.575680    0.064148    0.903816
  H     -0.236329   -1.060427    0.108085
  O      1.325067    1.791045   -0.549217
  O     -1.510991    1.889958   -0.715565
  O      3.450647   -3.817091    0.125862
  C      2.233842   -4.501682   -0.219374
  H      1.446515   -4.285248    0.511748
  H      2.482926   -5.562482   -0.198182
  H      1.898185   -4.214938   -1.222582
  Li    -0.039796    2.926862   -0.886291
  C     -6.405271   -2.232075    0.077425
  O     -7.464674   -1.430275    0.328605
  O     -6.500939   -3.446271   -0.034953
  C     -8.740218   -2.113062    0.458197
  H     -8.975335   -2.638537   -0.469902
  H     -9.463298   -1.323058    0.655006
  H     -8.698297   -2.822331    1.287594

 Multiplicity           Mult            ....    1
 Number of Electrons    NEL             ....  166
 Basis Dimension        Dim             ....  817

ORBITAL ENERGIES
----------------

  NO   OCC          E(Eh)            E(eV)
   0   2.0000     -18.931524      -515.1530
   1   2.0000     -18.916461      -514.7431
   2   2.0000     -18.874647      -513.6053
   3   2.0000     -18.859647      -513.1971
   4   2.0000     -18.859624      -513.1965
   5   2.0000     -10.112425      -275.1731
   6   2.0000     -10.059392      -273.7300
   7   2.0000     -10.059351      -273.7289
   8   2.0000     -10.048982      -273.4467
   9   2.0000     -10.038066      -273.1497
  10   2.0000     -10.035619      -273.0831
  11   2.0000     -10.011386      -272.4237
  12   2.0000     -10.007072      -272.3063
  13   2.0000     -10.001939      -272.1666
  14   2.0000     -10.001294      -272.1490
  15   2.0000     -10.000551      -272.1288
  16   2.0000      -9.999481      -272.0997
  17   2.0000      -9.996926      -272.0302
  18   2.0000      -9.992535      -271.9107
  19   2.0000      -9.992196      -271.9015
  20   2.0000      -9.990544      -271.8565
  21   2.0000      -9.984832      -271.7011
  22   2.0000      -9.969943      -271.2959
  23   2.0000      -1.866604       -50.7929
  24   2.0000      -1.033531       -28.1238
  25   2.0000      -0.994892       -27.0724
  26   2.0000      -0.951241       -25.8846
  27   2.0000      -0.948538       -25.8110
  28   2.0000      -0.938926       -25.5495
  29   2.0000      -0.809836       -22.0367
  30   2.0000      -0.796753       -21.6808
  31   2.0000      -0.734026       -19.9739
  32   2.0000      -0.717665       -19.5287
  33   2.0000      -0.702366       -19.1123
  34   2.0000      -0.696875       -18.9629
  35   2.0000      -0.686503       -18.6807
  36   2.0000      -0.666148       -18.1268
  37   2.0000      -0.644553       -17.5392
  38   2.0000      -0.608795       -16.5662
  39   2.0000      -0.582278       -15.8446
  40   2.0000      -0.565905       -15.3991
  41   2.0000      -0.551497       -15.0070
  42   2.0000      -0.529907       -14.4195
  43   2.0000      -0.518552       -14.1105
  44   2.0000      -0.499493       -13.5919
  45   2.0000      -0.484971       -13.1967
  46   2.0000      -0.469702       -12.7812
  47   2.0000      -0.448097       -12.1933
  48   2.0000      -0.443652       -12.0724
  49   2.0000      -0.438311       -11.9270
  50   2.0000      -0.437677       -11.9098
  51   2.0000      -0.430949       -11.7267
  52   2.0000      -0.422287       -11.4910
  53   2.0000      -0.417635       -11.3644
  54   2.0000      -0.412530       -11.2255
  55   2.0000      -0.404931       -11.0187
  56   2.0000      -0.396352       -10.7853
  57   2.0000      -0.394059       -10.7229
  58   2.0000      -0.389468       -10.5980
  59   2.0000      -0.377586       -10.2746
  60   2.0000      -0.373911       -10.1746
  61   2.0000      -0.372617       -10.1394
  62   2.0000      -0.367582       -10.0024
  63   2.0000      -0.355799        -9.6818
  64   2.0000      -0.352026        -9.5791
  65   2.0000      -0.336629        -9.1602
  66   2.0000      -0.335811        -9.1379
  67   2.0000      -0.330140        -8.9836
  68   2.0000      -0.322722        -8.7817
  69   2.0000      -0.320356        -8.7173
  70   2.0000      -0.316686        -8.6175
  71   2.0000      -0.308449        -8.3933
  72   2.0000      -0.297134        -8.0854
  73   2.0000      -0.285996        -7.7823
  74   2.0000      -0.273374        -7.4389
  75   2.0000      -0.248597        -6.7647
  76   2.0000      -0.244376        -6.6498
  77   2.0000      -0.243112        -6.6154
  78   2.0000      -0.239080        -6.5057
  79   2.0000      -0.236388        -6.4325
  80   2.0000      -0.214676        -5.8416
  81   2.0000      -0.202203        -5.5022
  82   2.0000      -0.197323        -5.3694
  83   0.0000      -0.103621        -2.8197
  84   0.0000      -0.070639        -1.9222
  85   0.0000      -0.045210        -1.2302
  86   0.0000      -0.032427        -0.8824
  87   0.0000      -0.019170        -0.5216

MULLIKEN ATOMIC CHARGES
-----------------------
   0 C :   -0.175557
   1 C :    0.138926
   2 C :   -0.190647
   3 C :   -0.176370
   4 C :    0.158068
   5 C :   -0.180212
   6 C :    0.342939
   7 H :    0.125776
   8 H :    0.132357
   9 H :    0.128943
  10 H :    0.141442
  11 C :   -0.376317
  12 C :    0.362045
  13 C :    0.123494
  14 C :   -0.348770
  15 C :    0.316260
  16 C :   -0.223027
  17 C :   -0.082564
  18 C :   -0.234251
  19 H :    0.122001
  20 H :    0.165266
  21 H :    0.116281
  22 H :    0.125595
  23 H :    0.149962
  24 O :   -0.658542
  25 O :   -0.661518
  26 O :   -0.257440
  27 C :   -0.229332
  28 H :    0.142518
  29 H :    0.154759
  30 H :    0.141881
  31 Li:    0.801989
  32 C :    0.308648
  33 O :   -0.226924
  34 O :   -0.388432
  35 C :   -0.236079
  36 H :    0.147516
  37 H :    0.152047
  38 H :    0.147268
Sum of atomic charges:   -0.0000000

LOEWDIN ATOMIC CHARGES
----------------------
   0 C :   -0.086655
   1 C :   -0.122125
   2 C :   -0.080967
   3 C :   -0.090201
   4 C :   -0.092885
   5 C :   -0.085810
   6 C :   -0.287976
   7 H :    0.154502
   8 H :    0.154457
   9 H :    0.155808
  10 H :    0.154540
  11 C :   -0.164170
  12 C :   -0.281707
  13 C :   -0.111456
  14 C :   -0.099516
  15 C :   -0.254577
  16 C :   -0.112413
  17 C :   -0.139096
  18 C :   -0.112576
  19 H :    0.149898
  20 H :    0.155459
  21 H :    0.151046
  22 H :    0.149299
  23 H :    0.152959
  24 O :   -0.016595
  25 O :   -0.020866
  26 O :    0.221440
  27 C :   -0.308421
  28 H :    0.112771
  29 H :    0.117327
  30 H :    0.112651
  31 Li:    0.592768
  32 C :   -0.439945
  33 O :    0.241758
  34 O :    0.070272
  35 C :   -0.287266
  36 H :    0.115581
  37 H :    0.117176
  38 H :    0.115512

  Mayer bond orders larger than 0.100000
B(  0-C ,  1-C ) :   1.3219 B(  0-C ,  5-C ) :   1.4128 B(  0-C ,  8-H ) :   0.9905
B(  1-C ,  2-C ) :   1.3218 B(  1-C , 32-C ) :   1.0187 B(  1-C , 33-O ) :  -0.1144
B(  2-C ,  3-C ) :   1.4305 B(  2-C ,  9-H ) :   0.9807 B(  3-C ,  4-C ) :   1.3308
B(  3-C , 10-H ) :   0.9638 B(  4-C ,  5-C ) :   1.3057 B(  4-C ,  6-C ) :   1.0202
B(  4-C , 25-O ) :  -0.1038 B(  5-C ,  7-H ) :   0.9806 B(  6-C , 11-C ) :   1.3369
B(  6-C , 25-O ) :   1.4333 B( 11-C , 12-C ) :   1.3110 B( 11-C , 23-H ) :   0.8824
B( 12-C , 13-C ) :   1.0142 B( 12-C , 24-O ) :   1.4344 B( 13-C , 14-C ) :   1.3356
B( 13-C , 18-C ) :   1.3362 B( 13-C , 24-O ) :  -0.1034 B( 14-C , 15-C ) :   1.3235
B( 14-C , 20-H ) :   0.9132 B( 15-C , 16-C ) :   1.3046 B( 15-C , 26-O ) :   1.1362
B( 16-C , 17-C ) :   1.4115 B( 16-C , 21-H ) :   1.0015 B( 17-C , 18-C ) :   1.3824
B( 17-C , 22-H ) :   0.9877 B( 18-C , 19-H ) :   0.9751 B( 24-O , 31-Li) :   0.1939
B( 25-O , 31-Li) :   0.1940 B( 26-O , 27-C ) :   0.9388 B( 27-C , 28-H ) :   0.9569
B( 27-C , 29-H ) :   0.9617 B( 27-C , 30-H ) :   0.9552 B( 32-C , 33-O ) :   1.2369
B( 32-C , 34-O ) :   1.9325 B( 33-O , 35-C ) :   0.9032 B( 35-C , 36-H ) :   0.9643
B( 35-C , 37-H ) :   0.9623 B( 35-C , 38-H ) :   0.9643

Dispersion correction           -0.060404116
FINAL SINGLE POINT ENERGY     -1079.352309641748

DIPOLE MOMENT
-------------
                                X             Y             Z
Electronic contribution:      3.66554      17.28277      -3.16939
Nuclear contribution   :     -3.97037     -16.05803       3.03461
                        -----------------------------------------
Total Dipole Moment    :     -0.30484       1.22474      -0.13478
                        -----------------------------------------
Magnitude (a.u.)       :      1.26928
Magnitude (Debye)      :      3.22626

VIBRATIONAL FREQUENCIES
-----------------------

Scaling factor for frequencies =  1.000000000 (already applied!)

   0:         0.00 cm**-1
   1:         0.00 cm**-1
   2:         0.00 cm**-1
   3:         0.00 cm**-1
   4:         0.00 cm**-1
   5:         0.00 cm**-1
   6:        15.34 cm**-1
   7:        19.03 cm**-1
   8:        34.34 cm**-1
   9:        46.62 cm**-1
  10:        50.39 cm**-1
  11:        72.80 cm**-1
  12:        89.94 cm**-1
  13:       101.36 cm**-1
  14:       106.44 cm**-1
  15:       133.77 cm**-1
  16:       146.09 cm**-1
  17:       159.02 cm**-1
  18:       172.88 cm**-1
  19:       185.19 cm**-1
  20:       206.82 cm**-1
  21:       214.90 cm**-1
  22:       239.60 cm**-1
  23:       265.78 cm**-1
  24:       271.04 cm**-1
  25:       285.68 cm**-1
  26:       302.10 cm**-1
  27:       323.68 cm**-1
  28:       369.27 cm**-1
  29:       401.55 cm**-1
  30:       414.44 cm**-1
  31:       429.41 cm**-1
  32:       441.30 cm**-1
  33:       454.07 cm**-1
  34:       475.01 cm**-1
  35:       490.04 cm**-1
  36:       542.47 cm**-1
  37:       552.34 cm**-1
  38:       572.83 cm**-1
  39:       598.13 cm**-1
  40:       629.55 cm**-1
  41:       650.32 cm**-1
  42:       671.27 cm**-1
  43:       685.26 cm**-1
  44:       690.63 cm**-1
  45:       712.93 cm**-1
  46:       746.51 cm**-1
  47:       753.84 cm**-1
  48:       773.01 cm**-1
  49:       793.20 cm**-1
  50:       808.12 cm**-1
  51:       815.33 cm**-1
  52:       844.96 cm**-1
  53:       861.54 cm**-1
  54:       874.63 cm**-1
  55:       878.00 cm**-1
  56:       901.58 cm**-1
  57:       944.02 cm**-1
  58:       948.76 cm**-1
  59:       961.65 cm**-1
  60:       974.78 cm**-1
  61:       981.88 cm**-1
  62:       994.06 cm**-1
  63:      1014.63 cm**-1
  64:      1017.76 cm**-1
  65:      1053.94 cm**-1
  66:      1084.40 cm**-1
  67:      1097.09 cm**-1
  68:      1108.18 cm**-1
  69:      1121.93 cm**-1
  70:      1148.82 cm**-1
  71:      1149.52 cm**-1
  72:      1157.55 cm**-1
  73:      1171.77 cm**-1
  74:      1186.51 cm**-1
  75:      1188.75 cm**-1
  76:      1210.51 cm**-1
  77:      1232.98 cm**-1
  78:      1255.43 cm**-1
  79:      1275.26 cm**-1
  80:      1306.12 cm**-1
  81:      1310.72 cm**-1
  82:      1342.31 cm**-1
  83:      1354.56 cm**-1
  84:      1394.21 cm**-1
  85:      1413.69 cm**-1
  86:      1438.95 cm**-1
  87:      1447.62 cm**-1
  88:      1457.93 cm**-1
  89:      1466.52 cm**-1
  90:      1475.00 cm**-1
  91:      1476.00 cm**-1
  92:      1482.77 cm**-1
  93:      1491.28 cm**-1
  94:      1501.60 cm**-1
  95:      1513.33 cm**-1
  96:      1532.45 cm**-1
  97:      1574.74 cm**-1
  98:      1594.01 cm**-1
  99:      1598.15 cm**-1
 100:      1611.29 cm**-1
 101:      1674.11 cm**-1
 102:      2985.97 cm**-1
 103:      3024.45 cm**-1
 104:      3048.17 cm**-1
 105:      3099.89 cm**-1
 106:      3113.95 cm**-1
 107:      3135.01 cm**-1
 108:      3136.58 cm**-1
 109:      3150.42 cm**-1
 110:      3155.76 cm**-1
 111:      3158.99 cm**-1
 112:      3165.85 cm**-1
 113:      3168.66 cm**-1
 114:      3174.11 cm**-1
 115:      3181.13 cm**-1
 116:      3191.66 cm**-1

IR SPECTRUM
-----------

 Mode   freq       eps      Int      T**2         TX        TY        TZ
       cm**-1   L/(mol*cm) km/mol    a.u.
----------------------------------------------------------------------------
  6:     15.34   0.000542    2.74  0.011032  ( 0.009714 -0.007918  0.104284)
  7:     19.03   0.000014    0.07  0.000225  (-0.014652  0.000054  0.003270)
  8:     34.34   0.000053    0.27  0.000482  ( 0.019415  0.007681  0.006805)
  9:     46.62   0.000368    1.86  0.002465  ( 0.006055 -0.001117  0.049269)
 10:     50.39   0.000062    0.31  0.000383  ( 0.009422  0.015684  0.006934)
 11:     72.80   0.000339    1.71  0.001454  ( 0.007679 -0.005184 -0.036990)
 12:     89.94   0.000606    3.06  0.002104  (-0.000313  0.017040  0.042584)
 13:    101.36   0.001082    5.47  0.003331  ( 0.019866  0.008217 -0.053560)
 14:    106.44   0.000045    0.23  0.000133  (-0.004282  0.010698  0.000132)
 15:    133.77   0.000319    1.61  0.000744  (-0.007283  0.007646 -0.025157)
 16:    146.09   0.000097    0.49  0.000208  ( 0.001239  0.012172 -0.007629)
 17:    159.02   0.001207    6.10  0.002368  (-0.007642  0.002883 -0.047972)
 18:    172.88   0.013999   70.75  0.025269  ( 0.017652 -0.037211 -0.153535)
 19:    185.19   0.006640   33.55  0.011189  (-0.001575 -0.017647 -0.104282)
 20:    206.82   0.000389    1.96  0.000586  ( 0.002525  0.001847 -0.024015)
 21:    214.90   0.000327    1.65  0.000475  ( 0.004155 -0.012128 -0.017638)
 22:    239.60   0.001663    8.40  0.002166  ( 0.016019 -0.043027 -0.007599)
 23:    265.78   0.000243    1.23  0.000285  (-0.012556  0.009535 -0.006037)
 24:    271.04   0.000285    1.44  0.000328  (-0.013169  0.000293  0.012436)
 25:    285.68   0.000045    0.23  0.000049  (-0.001015 -0.005194  0.004561)
 26:    302.10   0.004911   24.82  0.005073  (-0.064418  0.028612  0.010212)
 27:    323.68   0.004256   21.51  0.004104  ( 0.050371  0.038598 -0.008747)
 28:    369.27   0.002992   15.12  0.002528  ( 0.007212  0.048501 -0.011127)
 29:    401.55   0.000376    1.90  0.000292  ( 0.013287 -0.010720  0.000831)
 30:    414.44   0.006810   34.42  0.005128  (-0.056139  0.043450 -0.009410)
 31:    429.41   0.002793   14.11  0.002030  ( 0.006610 -0.043284  0.010610)
 32:    441.30   0.000363    1.84  0.000257  (-0.003989 -0.014121 -0.006460)
 33:    454.07   0.005542   28.01  0.003809  (-0.044703  0.034803 -0.024480)
 34:    475.01   0.000617    3.12  0.000405  (-0.011254  0.008545 -0.014333)
 35:    490.04   0.012554   63.44  0.007995  ( 0.076801  0.041384 -0.019585)
 36:    542.47   0.002154   10.89  0.001239  ( 0.011479 -0.032350 -0.007814)
 37:    552.34   0.004470   22.59  0.002525  (-0.040762  0.028828 -0.005711)
 38:    572.83   0.015209   76.86  0.008286  (-0.026660 -0.085078  0.018349)
 39:    598.13   0.014658   74.07  0.007647  ( 0.018139  0.084339 -0.014328)
 40:    629.55   0.000111    0.56  0.000055  (-0.007420  0.000285  0.000065)
 41:    650.32   0.012580   63.58  0.006037  ( 0.073023 -0.020539  0.016810)
 42:    671.27   0.001280    6.47  0.000595  ( 0.000649  0.000576 -0.024380)
 43:    685.26   0.003335   16.86  0.001519  ( 0.027351  0.002408 -0.027659)
 44:    690.63   0.003152   15.93  0.001424  (-0.018067  0.005209 -0.032721)
 45:    712.93   0.004858   24.55  0.002126  (-0.004806  0.006844 -0.045349)
 46:    746.51   0.008713   44.03  0.003642  (-0.003160 -0.000419  0.060268)
 47:    753.84   0.013206   66.74  0.005467  ( 0.071744 -0.017376 -0.004217)
 48:    773.01   0.020985  106.05  0.008472  (-0.004256 -0.001356 -0.091934)
 49:    793.20   0.005068   25.61  0.001994  (-0.011525  0.001877  0.043100)
 50:    808.12   0.001326    6.70  0.000512  (-0.003386  0.015776  0.015867)
 51:    815.33   0.004021   20.32  0.001539  (-0.004459  0.038960 -0.001072)
 52:    844.96   0.000211    1.07  0.000078  ( 0.008060  0.003214 -0.001629)
 53:    861.54   0.006461   32.65  0.002340  (-0.027801 -0.008146  0.038744)
 54:    874.63   0.003948   19.95  0.001409  ( 0.007399 -0.002326  0.036721)
 55:    878.00   0.003407   17.22  0.001211  ( 0.000335  0.034702 -0.002544)
 56:    901.58   0.000060    0.31  0.000021  (-0.001089  0.003354 -0.002914)
 57:    944.02   0.007007   35.41  0.002316  ( 0.013942 -0.043752  0.014416)
 58:    948.76   0.003574   18.06  0.001176  ( 0.023231  0.025216 -0.000347)
 59:    961.65   0.000262    1.32  0.000085  ( 0.005692 -0.003828  0.006162)
 60:    974.78   0.000624    3.15  0.000200  (-0.013817 -0.001967  0.002232)
 61:    981.88   0.000008    0.04  0.000003  ( 0.000361  0.001223  0.000981)
 62:    994.06   0.002699   13.64  0.000847  (-0.027609 -0.008295 -0.004032)
 63:   1014.63   0.016818   84.99  0.005173  (-0.059653 -0.040028  0.003453)
 64:   1017.76   0.014834   74.97  0.004548  (-0.009079 -0.065984 -0.010588)
 65:   1053.94   0.005982   30.23  0.001771  ( 0.038102 -0.014250  0.010790)
 66:   1084.40   0.005267   26.62  0.001516  (-0.036093 -0.013839 -0.004626)
 67:   1097.09   0.070455  356.05  0.020041  (-0.140275  0.004717  0.018475)
 68:   1108.18   0.002111   10.67  0.000594  ( 0.000920  0.024356  0.000567)
 69:   1121.93   0.001462    7.39  0.000407  (-0.011408 -0.012119 -0.011387)
 70:   1148.82   0.000317    1.60  0.000086  (-0.000068  0.000728 -0.009251)
 71:   1149.52   0.000201    1.02  0.000055  ( 0.002381 -0.000210 -0.006995)
 72:   1157.55   0.002258   11.41  0.000609  (-0.023493 -0.007221 -0.002192)
 73:   1171.77   0.019192   96.99  0.005111  (-0.070410 -0.011513  0.004583)
 74:   1186.51   0.001721    8.70  0.000453  ( 0.005066 -0.017697 -0.010671)
 75:   1188.75   0.019436   98.22  0.005102  ( 0.070647 -0.005271 -0.009135)
 76:   1210.51   0.025920  130.99  0.006682  ( 0.052308  0.060104  0.018259)
 77:   1232.98   0.021127  106.77  0.005347  ( 0.030564 -0.065644 -0.010203)
 78:   1255.43   0.169843  858.32  0.042218  ( 0.202009  0.029111 -0.023727)
 79:   1275.26   0.071505  361.36  0.017498  ( 0.055261 -0.119714  0.010612)
 80:   1306.12   0.012608   63.72  0.003012  (-0.053809 -0.010522  0.002500)
 81:   1310.72   0.011143   56.31  0.002653  (-0.036605  0.035532 -0.007104)
 82:   1342.31   0.008997   45.47  0.002092  (-0.006779  0.044646 -0.007250)
 83:   1354.56   0.013198   66.70  0.003040  (-0.011030 -0.053967 -0.002526)
 84:   1394.21   0.098492  497.74  0.022045  ( 0.147478 -0.008231  0.015094)
 85:   1413.69   0.058278  294.51  0.012864  ( 0.112871 -0.004286 -0.010303)
 86:   1438.95   0.097673  493.60  0.021182  (-0.144123 -0.017502 -0.010228)
 87:   1447.62   0.009411   47.56  0.002029  ( 0.040795  0.019068 -0.000985)
 88:   1457.93   0.017059   86.21  0.003651  ( 0.059760 -0.008638  0.002378)
 89:   1466.52   0.002202   11.13  0.000469  ( 0.002919 -0.002927  0.021247)
 90:   1475.00   0.002116   10.70  0.000448  (-0.005560  0.005739 -0.019594)
 91:   1476.00   0.002486   12.57  0.000526  ( 0.017414 -0.013751 -0.005775)
 92:   1482.77   0.017469   88.28  0.003677  ( 0.051878 -0.029662 -0.010267)
 93:   1491.28   0.048341  244.30  0.010116  ( 0.096302  0.029014  0.000219)
 94:   1501.60   0.053362  269.67  0.011090  (-0.093685  0.043117 -0.021303)
 95:   1513.33   0.138665  700.76  0.028594  (-0.166043 -0.031578 -0.005160)
 96:   1532.45   0.143084  723.09  0.029137  ( 0.011253 -0.167090  0.033035)
 97:   1574.74   0.029448  148.82  0.005836  (-0.002158  0.075526 -0.011262)
 98:   1594.01   0.003222   16.28  0.000631  (-0.001653 -0.020957  0.013742)
 99:   1598.15   0.012428   62.80  0.002427  (-0.006466 -0.047854 -0.009742)
100:   1611.29   0.006489   32.79  0.001257  (-0.029452 -0.019692  0.001214)
101:   1674.11   0.098561  498.09  0.018372  ( 0.030325  0.131542  0.012223)
102:   2985.97   0.010279   51.94  0.001074  ( 0.026669  0.017136  0.008327)
103:   3024.45   0.007433   37.56  0.000767  (-0.026037 -0.009085  0.002538)
104:   3048.17   0.009370   47.35  0.000959  ( 0.007920  0.001737 -0.029892)
105:   3099.89   0.005172   26.14  0.000521  (-0.003670  0.002352 -0.022397)
106:   3113.95   0.005138   25.96  0.000515  (-0.008055  0.021196 -0.000827)
107:   3135.01   0.003733   18.86  0.000372  ( 0.011636 -0.014964 -0.003501)
108:   3136.58   0.002837   14.34  0.000282  ( 0.013309  0.009616  0.003554)
109:   3150.42   0.000962    4.86  0.000095  ( 0.009540 -0.000013 -0.002072)
110:   3155.76   0.003381   17.09  0.000334  ( 0.015804 -0.008539  0.003410)
111:   3158.99   0.000254    1.28  0.000025  ( 0.000211 -0.004810 -0.001376)
112:   3165.85   0.001320    6.67  0.000130  ( 0.006607 -0.008673 -0.003360)
113:   3168.66   0.002892   14.61  0.000285  ( 0.014420  0.007807  0.003992)
114:   3174.11   0.001825    9.22  0.000179  (-0.010077  0.008527  0.002278)
115:   3181.13   0.000051    0.26  0.000005  (-0.001137  0.000214  0.001924)
116:   3191.66   0.001303    6.58  0.000127  (-0.001458  0.011119 -0.001283)

--------------------------
THERMOCHEMISTRY AT 298.15K
--------------------------

Temperature         ... 298.15 K
Pressure            ... 1.00 atm
Total Mass          ... 318.25 AMU

Throughout the following assumptions are being made:
  (1) The electronic state is orbitally nondegenerate
  (2) There are no thermally accessible electronically excited states
  (3) Hindered rotations indicated by low frequency modes are not
      treated as such but are treated as vibrations and this may
      cause some error
  (4) All equations used are the standard statistical mechanics
      equations for an ideal gas
  (5) All vibrations are strictly harmonic

freq.      15.34  E(vib)   ...       0.57
freq.      19.03  E(vib)   ...       0.57
freq.      34.34  E(vib)   ...       0.54
freq.      46.62  E(vib)   ...       0.53
freq.      50.39  E(vib)   ...       0.52
freq.      72.80  E(vib)   ...       0.49
freq.      89.94  E(vib)   ...       0.47
freq.     101.36  E(vib)   ...       0.46
freq.     106.44  E(vib)   ...       0.45
freq.     133.77  E(vib)   ...       0.42
freq.     146.09  E(vib)   ...       0.41
freq.     159.02  E(vib)   ...       0.39
freq.     172.88  E(vib)   ...       0.38
freq.     185.19  E(vib)   ...       0.37
freq.     206.82  E(vib)   ...       0.35
freq.     214.90  E(vib)   ...       0.34
freq.     239.60  E(vib)   ...       0.31
freq.     265.78  E(vib)   ...       0.29
freq.     271.04  E(vib)   ...       0.29
freq.     285.68  E(vib)   ...       0.28
freq.     302.10  E(vib)   ...       0.26
freq.     323.68  E(vib)   ...       0.25
freq.     369.27  E(vib)   ...       0.21
freq.     401.55  E(vib)   ...       0.19
freq.     414.44  E(vib)   ...       0.19
freq.     429.41  E(vib)   ...       0.18
freq.     441.30  E(vib)   ...       0.17
freq.     454.07  E(vib)   ...       0.16
freq.     475.01  E(vib)   ...       0.15
freq.     490.04  E(vib)   ...       0.15
freq.     542.47  E(vib)   ...       0.12
freq.     552.34  E(vib)   ...       0.12
freq.     572.83  E(vib)   ...       0.11
freq.     598.13  E(vib)   ...       0.10
freq.     629.55  E(vib)   ...       0.09
freq.     650.32  E(vib)   ...       0.08
freq.     671.27  E(vib)   ...       0.08
freq.     685.26  E(vib)   ...       0.07
freq.     690.63  E(vib)   ...       0.07
freq.     712.93  E(vib)   ...       0.07
freq.     746.51  E(vib)   ...       0.06
freq.     753.84  E(vib)   ...       0.06
freq.     773.01  E(vib)   ...       0.05
freq.     793.20  E(vib)   ...       0.05
freq.     808.12  E(vib)   ...       0.05
freq.     815.33  E(vib)   ...       0.05
freq.     844.96  E(vib)   ...       0.04
freq.     861.54  E(vib)   ...       0.04
freq.     874.63  E(vib)   ...       0.04
freq.     878.00  E(vib)   ...       0.04
freq.     901.58  E(vib)   ...       0.03
freq.     944.02  E(vib)   ...       0.03
freq.     948.76  E(vib)   ...       0.03
freq.     961.65  E(vib)   ...       0.03
freq.     974.78  E(vib)   ...       0.03
freq.     981.88  E(vib)   ...       0.02
freq.     994.06  E(vib)   ...       0.02
freq.    1014.63  E(vib)   ...       0.02
freq.    1017.76  E(vib)   ...       0.02
freq.    1053.94  E(vib)   ...       0.02
freq.    1084.40  E(vib)   ...       0.02
freq.    1097.09  E(vib)   ...       0.02
freq.    1108.18  E(vib)   ...       0.02
freq.    1121.93  E(vib)   ...       0.01
freq.    1148.82  E(vib)   ...       0.01
freq.    1149.52  E(vib)   ...       0.01
freq.    1157.55  E(vib)   ...       0.01
freq.    1171.77  E(vib)   ...       0.01
freq.    1186.51  E(vib)   ...       0.01
freq.    1188.75  E(vib)   ...       0.01
freq.    1210.51  E(vib)   ...       0.01
freq.    1232.98  E(vib)   ...       0.01
freq.    1255.43  E(vib)   ...       0.01
freq.    1275.26  E(vib)   ...       0.01
freq.    1306.12  E(vib)   ...       0.01
freq.    1310.72  E(vib)   ...       0.01
freq.    1342.31  E(vib)   ...       0.01
freq.    1354.56  E(vib)   ...       0.01
freq.    1394.21  E(vib)   ...       0.00
freq.    1413.69  E(vib)   ...       0.00
freq.    1438.95  E(vib)   ...       0.00
freq.    1447.62  E(vib)   ...       0.00
freq.    1457.93  E(vib)   ...       0.00
freq.    1466.52  E(vib)   ...       0.00
freq.    1475.00  E(vib)   ...       0.00
freq.    1476.00  E(vib)   ...       0.00
freq.    1482.77  E(vib)   ...       0.00
freq.    1491.28  E(vib)   ...       0.00
freq.    1501.60  E(vib)   ...       0.00
freq.    1513.33  E(vib)   ...       0.00
freq.    1532.45  E(vib)   ...       0.00
freq.    1574.74  E(vib)   ...       0.00
freq.    1594.01  E(vib)   ...       0.00
freq.    1598.15  E(vib)   ...       0.00
freq.    1611.29  E(vib)   ...       0.00
freq.    1674.11  E(vib)   ...       0.00
freq.    2985.97  E(vib)   ...       0.00
freq.    3024.45  E(vib)   ...       0.00
freq.    3048.17  E(vib)   ...       0.00
freq.    3099.89  E(vib)   ...       0.00
freq.    3113.95  E(vib)   ...       0.00
freq.    3135.01  E(vib)   ...       0.00
freq.    3136.58  E(vib)   ...       0.00
freq.    3150.42  E(vib)   ...       0.00
freq.    3155.76  E(vib)   ...       0.00
freq.    3158.99  E(vib)   ...       0.00
freq.    3165.85  E(vib)   ...       0.00
freq.    3168.66  E(vib)   ...       0.00
freq.    3174.11  E(vib)   ...       0.00
freq.    3181.13  E(vib)   ...       0.00
freq.    3191.66  E(vib)   ...       0.00

------------
INNER ENERGY
------------

The inner energy is: U= E(el) + E(ZPE) + E(vib) + E(rot) + E(trans)
    E(el)   - is the total energy from the electronic structure calculation
              = E(kin-el) + E(nuc-el) + E(el-el) + E(nuc-nuc)
    E(ZPE)  - the the zero temperature vibrational energy from the frequency calculation
    E(vib)  - the the finite temperature correction to E(ZPE) due to population
              of excited vibrational states
    E(rot)  - is the rotational thermal energy
    E(trans)- is the translational thermal energy

Summary of contributions to the inner energy U:
Electronic energy                ...  -1079.35230963 Eh
Zero point energy                ...      0.28910521 Eh     181.42 kcal/mol
Thermal vibrational correction   ...      0.01950323 Eh      12.24 kcal/mol
Thermal rotational correction    ...      0.00141627 Eh       0.89 kcal/mol
Thermal translational correction ...      0.00141627 Eh       0.89 kcal/mol
-----------------------------------------------------------------------
Total thermal energy                  -1079.04086865 Eh

Summary of corrections to the electronic energy:
(perhaps to be used in another calculation)
Total thermal correction                  0.02233577 Eh      14.02 kcal/mol
Non-thermal (ZPE) correction              0.28910521 Eh     181.42 kcal/mol
-----------------------------------------------------------------------
Total correction                          0.31144097 Eh     195.43 kcal/mol

--------

Rotational constants in cm-1:     0.015307     0.003114     0.002619

                             ****ORCA TERMINATED NORMALLY****
TOTAL RUN TIME: 0 days 13 hours 47 minutes 0 seconds 441 msec
