                         Program Version 5.0.2 -  RELEASE  -
|  1> ! PW6B95 D3BJ def2-QZVP RIJK def2/JK tightSCF CPCM(THF)
|  2> ! sp Pal4
|  3>
|  4> * xyz +1 1
|  5>   N   1.48391354615572     -2.15086196101629      0.61347790067494
|  6>   C   2.75734235828868     -1.30263349914529      0.64155902286537
|  7>   H   1.78751569220524     -3.13030474086719      0.57853389946710
|  8>   C   0.44286937793798     -1.97025424318919     -0.51132585409553
|  9>   C   1.13488222172248     -1.83672729559826     -1.86057002431144
| 10>   C   -0.52843176985759     -0.83847766607363     -0.19486337798060
| 11>   H   -0.10198489219612     -2.91798271303701     -0.47400779914047
| 12>   C   3.66395937310729     -1.90089926755889      1.71458327272623
| 13>   C   2.44636078711554      0.16671692838786      0.89398117220978
| 14>   H   3.20900759657875     -1.43921190360283     -0.34301394544365
| 15>   H   3.21481006353462     -1.79632924312437      2.70824499705435
| 16>   H   4.61667947594364     -1.36560633581655      1.70992511744101
| 17>   H   3.86390333181875     -2.96022903900265      1.52297098166676
| 18>   H   1.84632642319478      0.28895759718488      1.80201885745954
| 19>   H   1.92713259941949      0.63213028007859      0.05485321730441
| 20>   H   3.39359823270382      0.69351386571185      1.03741482034055
| 21>   H   1.66015666265679     -0.88177002884376     -1.95218210671601
| 22>   H   0.36879398673038     -1.87634277376371     -2.63968024849340
| 23>   H   1.84058110362355     -2.65500606690652     -2.03461047391930
| 24>   H   -0.07381729038487      0.14627215292852     -0.31651626902576
| 25>   H   -0.92568734657167     -0.92787716871734      0.82148544742114
| 26>   H   -1.36725381780282     -0.91284123671354     -0.89262637016792
| 27>   H   1.00317274786142     -2.04334603849394      1.51463799816672
| 28> *
| 29>
| 30>                          ****END OF INPUT****

CARTESIAN COORDINATES (ANGSTROEM)
---------------------------------
  N      1.483914   -2.150862    0.613478
  C      2.757342   -1.302633    0.641559
  H      1.787516   -3.130305    0.578534
  C      0.442869   -1.970254   -0.511326
  C      1.134882   -1.836727   -1.860570
  C     -0.528432   -0.838478   -0.194863
  H     -0.101985   -2.917983   -0.474008
  C      3.663959   -1.900899    1.714583
  C      2.446361    0.166717    0.893981
  H      3.209008   -1.439212   -0.343014
  H      3.214810   -1.796329    2.708245
  H      4.616679   -1.365606    1.709925
  H      3.863903   -2.960229    1.522971
  H      1.846326    0.288958    1.802019
  H      1.927133    0.632130    0.054853
  H      3.393598    0.693514    1.037415
  H      1.660157   -0.881770   -1.952182
  H      0.368794   -1.876343   -2.639680
  H      1.840581   -2.655006   -2.034610
  H     -0.073817    0.146272   -0.316516
  H     -0.925687   -0.927877    0.821485
  H     -1.367254   -0.912841   -0.892626
  H      1.003173   -2.043346    1.514638

 Total Charge           Charge          ....    1
 Multiplicity           Mult            ....    1
 Number of Electrons    NEL             ....   58
 Basis Dimension        Dim             ....  879

ORBITAL ENERGIES
----------------

  NO   OCC          E(Eh)            E(eV)
   0   2.0000     -14.596287      -397.1852
   1   2.0000     -10.388399      -282.6827
   2   2.0000     -10.386937      -282.6429
   3   2.0000     -10.318501      -280.7807
   4   2.0000     -10.318401      -280.7780
   5   2.0000     -10.317320      -280.7486
   6   2.0000     -10.317078      -280.7420
   7   2.0000      -1.045827       -28.4584
   8   2.0000      -0.861422       -23.4405
   9   2.0000      -0.825600       -22.4657
  10   2.0000      -0.751163       -20.4402
  11   2.0000      -0.744586       -20.2612
  12   2.0000      -0.671285       -18.2666
  13   2.0000      -0.646163       -17.5830
  14   2.0000      -0.610027       -16.5997
  15   2.0000      -0.559837       -15.2339
  16   2.0000      -0.536656       -14.6031
  17   2.0000      -0.496834       -13.5195
  18   2.0000      -0.485869       -13.2212
  19   2.0000      -0.455470       -12.3940
  20   2.0000      -0.447785       -12.1848
  21   2.0000      -0.444459       -12.0943
  22   2.0000      -0.435665       -11.8550
  23   2.0000      -0.428204       -11.6520
  24   2.0000      -0.415933       -11.3181
  25   2.0000      -0.400908       -10.9093
  26   2.0000      -0.396002       -10.7758
  27   2.0000      -0.394102       -10.7240
  28   2.0000      -0.382021       -10.3953
  29   0.0000      -0.012425        -0.3381
  30   0.0000       0.016889         0.4596
  31   0.0000       0.019432         0.5288
  32   0.0000       0.023775         0.6470
  33   0.0000       0.044734         1.2173

MULLIKEN ATOMIC CHARGES
-----------------------
   0 N :   -0.214337
   1 C :    0.104780
   2 H :    0.275990
   3 C :   -0.019697
   4 C :   -0.240308
   5 C :   -0.245659
   6 H :    0.124891
   7 C :   -0.294749
   8 C :   -0.259566
   9 H :    0.121192
  10 H :    0.112633
  11 H :    0.119949
  12 H :    0.109108
  13 H :    0.135852
  14 H :    0.079695
  15 H :    0.117113
  16 H :    0.089198
  17 H :    0.124570
  18 H :    0.132445
  19 H :    0.112653
  20 H :    0.118190
  21 H :    0.120299
  22 H :    0.275757
Sum of atomic charges:    1.0000000

LOEWDIN ATOMIC CHARGES
----------------------
   0 N :    0.805193
   1 C :   -0.078622
   2 H :   -0.047098
   3 C :   -0.064487
   4 C :    0.251317
   5 C :    0.255766
   6 H :   -0.025237
   7 C :    0.256105
   8 C :    0.256614
   9 H :   -0.030000
  10 H :   -0.044067
  11 H :   -0.038966
  12 H :   -0.047968
  13 H :   -0.042253
  14 H :   -0.055854
  15 H :   -0.037142
  16 H :   -0.046349
  17 H :   -0.036758
  18 H :   -0.045218
  19 H :   -0.053545
  20 H :   -0.046567
  21 H :   -0.037659
  22 H :   -0.047204

  Mayer bond orders larger than 0.100000
B(  0-N ,  1-C ) :   0.8300 B(  0-N ,  2-H ) :   0.8948 B(  0-N ,  3-C ) :   0.8238
B(  0-N , 22-H ) :   0.8957 B(  1-C ,  7-C ) :   1.0056 B(  1-C ,  8-C ) :   1.0129
B(  1-C ,  9-H ) :   0.9373 B(  3-C ,  4-C ) :   1.0263 B(  3-C ,  5-C ) :   1.0265
B(  3-C ,  6-H ) :   0.9401 B(  4-C , 16-H ) :   0.9376 B(  4-C , 17-H ) :   0.9545
B(  4-C , 18-H ) :   0.9526 B(  5-C , 19-H ) :   0.9383 B(  5-C , 20-H ) :   0.9530
B(  5-C , 21-H ) :   0.9568 B(  7-C , 10-H ) :   0.9522 B(  7-C , 11-H ) :   0.9577
B(  7-C , 12-H ) :   0.9600 B(  8-C , 13-H ) :   0.9439 B(  8-C , 14-H ) :   0.9555
B(  8-C , 15-H ) :   0.9556

Dispersion correction           -0.009559282
FINAL SINGLE POINT ENERGY      -293.387445493549

DIPOLE MOMENT
-------------
                                X             Y             Z
Electronic contribution:     -0.38986      -2.29893       0.51800
Nuclear contribution   :      0.20264       1.26532      -0.01796
                        -----------------------------------------
Total Dipole Moment    :     -0.18722      -1.03361       0.50004
                        -----------------------------------------
Magnitude (a.u.)       :      1.16337
Magnitude (Debye)      :      2.95706

Rotational constants in cm-1:     0.125742     0.052393     0.048021
Rotational constants in MHz :  3769.661103  1570.699882  1439.644668

                             ****ORCA TERMINATED NORMALLY****
TOTAL RUN TIME: 0 days 0 hours 5 minutes 19 seconds 606 msec
