                         Program Version 5.0.2 -  RELEASE  -
|  1> ! TPSS D3BJ def2-TZVP RI def2/J CPCM(THF)
|  2> ! Opt numfreq Pal4
|  3>
|  4> * xyz 0 1
|  5> C       -3.2022730000      1.5052770000      0.0051830000
|  6> C       -3.2964020000      0.1112800000     -0.0174160000
|  7> C       -2.1114920000     -0.6373780000     -0.0327720000
|  8> C       -0.8653850000     -0.0238590000     -0.0260410000
|  9> C       -0.7654660000      1.3827460000     -0.0031400000
| 10> C       -1.9472900000      2.1278290000      0.0119180000
| 11> H       -1.8946770000      3.2112250000      0.0294590000
| 12> H       -4.2560230000     -0.3927430000     -0.0233110000
| 13> H       -2.1763500000     -1.7224240000     -0.0505910000
| 14> H        0.0280800000     -0.6384790000     -0.0389410000
| 15> C        0.5486250000      2.1133250000      0.0054310000
| 16> C        1.7547031611      1.7644291531      0.5356692485
| 17> H        1.8823759380      0.8879198131      1.1590026857
| 18> H        2.6304679299      2.3757264454      0.3376010373
| 19> O        0.3800955948      3.1777586923     -0.7530390127
| 20> Li       0.0986519899      4.5055120847     -1.7064314201
| 21> O       -4.2849070000      2.3517400000      0.0219120000
| 22> C       -5.5867330000      1.7451140000      0.0156910000
| 23> H       -5.7317120000      1.1430180000     -0.8888870000
| 24> H       -6.2949750000      2.5739020000      0.0289480000
| 25> H       -5.7283660000      1.1173760000      0.9032520000
| 26> *
| 27>
| 28>                          ****END OF INPUT****
 Total Charge           Charge          ....    0
 Multiplicity           Mult            ....    1
 Number of Electrons    NEL             ....   82
Dispersion correction           -0.028654037
FINAL SINGLE POINT ENERGY      -506.675818127013
Dispersion correction            ... done
Dispersion correction           -0.028581539
FINAL SINGLE POINT ENERGY      -506.682241118943
Dispersion correction            ... done
Dispersion correction           -0.028635959
FINAL SINGLE POINT ENERGY      -506.684182278694
Dispersion correction            ... done
FINAL SINGLE POINT ENERGY      -506.684425918951
FINAL SINGLE POINT ENERGY      -506.684567769944
FINAL SINGLE POINT ENERGY      -506.684583508987
FINAL SINGLE POINT ENERGY      -506.684593670132
FINAL SINGLE POINT ENERGY      -506.684595703222
FINAL SINGLE POINT ENERGY      -506.684597462345
FINAL SINGLE POINT ENERGY      -506.684598697786
FINAL SINGLE POINT ENERGY      -506.684600904628
FINAL SINGLE POINT ENERGY      -506.684603671988
FINAL SINGLE POINT ENERGY      -506.684606743086
Dispersion correction            ... done
Dispersion correction           -0.028638598
FINAL SINGLE POINT ENERGY      -506.684608818594
Dispersion correction            ... done
Dispersion correction           -0.028637872
FINAL SINGLE POINT ENERGY      -506.684609779478
Dispersion correction            ... done
                    ***********************HURRAY********************

CARTESIAN COORDINATES (ANGSTROEM)
---------------------------------
  C     -3.215831    1.498983   -0.054353
  C     -3.280220    0.111106    0.101550
  C     -2.081018   -0.609688    0.177833
  C     -0.847775    0.026605    0.108677
  C     -0.779306    1.426301   -0.043359
  C     -1.974851    2.143819   -0.131199
  H     -1.943568    3.221508   -0.254642
  H     -4.229728   -0.408822    0.155710
  H     -2.123899   -1.690527    0.286399
  H      0.062458   -0.562283    0.151257
  C      0.520727    2.175726   -0.122237
  C      1.686423    1.593141    0.276621
  H      1.717086    0.585132    0.672647
  H      2.619817    2.146000    0.219873
  O      0.443168    3.410694   -0.574470
  Li     0.331750    4.962251   -1.152149
  O     -4.316953    2.316617   -0.142764
  C     -5.605371    1.687659   -0.055491
  H     -5.750376    0.979003   -0.879401
  H     -6.330886    2.498077   -0.129806
  H     -5.720697    1.167993    0.902802

 Multiplicity           Mult            ....    1
 Number of Electrons    NEL             ....   82
 Basis Dimension        Dim             ....  409

ORBITAL ENERGIES
----------------

  NO   OCC          E(Eh)            E(eV)
   0   2.0000     -18.910292      -514.5752
   1   2.0000     -18.824397      -512.2379
   2   2.0000     -10.039496      -273.1886
   3   2.0000     -10.032125      -272.9880
   4   2.0000     -10.019611      -272.6475
   5   2.0000      -9.986679      -271.7514
   6   2.0000      -9.983866      -271.6748
   7   2.0000      -9.980510      -271.5835
   8   2.0000      -9.975074      -271.4356
   9   2.0000      -9.974852      -271.4295
  10   2.0000      -9.940406      -270.4922
  11   2.0000      -1.908193       -51.9246
  12   2.0000      -0.987812       -26.8797
  13   2.0000      -0.900512       -24.5042
  14   2.0000      -0.784715       -21.3532
  15   2.0000      -0.697042       -18.9675
  16   2.0000      -0.692301       -18.8385
  17   2.0000      -0.643448       -17.5091
  18   2.0000      -0.634294       -17.2600
  19   2.0000      -0.555213       -15.1081
  20   2.0000      -0.541922       -14.7464
  21   2.0000      -0.492894       -13.4123
  22   2.0000      -0.457737       -12.4557
  23   2.0000      -0.431868       -11.7517
  24   2.0000      -0.429979       -11.7003
  25   2.0000      -0.417429       -11.3588
  26   2.0000      -0.402048       -10.9403
  27   2.0000      -0.381402       -10.3785
  28   2.0000      -0.377263       -10.2658
  29   2.0000      -0.358991        -9.7686
  30   2.0000      -0.345807        -9.4099
  31   2.0000      -0.333623        -9.0783
  32   2.0000      -0.316346        -8.6082
  33   2.0000      -0.312659        -8.5079
  34   2.0000      -0.310102        -8.4383
  35   2.0000      -0.284186        -7.7331
  36   2.0000      -0.277337        -7.5467
  37   2.0000      -0.223170        -6.0728
  38   2.0000      -0.204019        -5.5517
  39   2.0000      -0.195438        -5.3181
  40   2.0000      -0.161588        -4.3970
  41   0.0000      -0.044137        -1.2010
  42   0.0000      -0.025278        -0.6878
  43   0.0000      -0.021528        -0.5858
  44   0.0000       0.033403         0.9089
  45   0.0000       0.041912         1.1405

MULLIKEN ATOMIC CHARGES
-----------------------
   0 C :    0.321724
   1 C :   -0.277235
   2 C :   -0.150994
   3 C :   -0.230296
   4 C :    0.142275
   5 C :   -0.297443
   6 H :    0.096938
   7 H :    0.136187
   8 H :    0.122634
   9 H :    0.109533
  10 C :    0.349414
  11 C :   -0.500951
  12 H :    0.128742
  13 H :    0.115905
  14 O :   -0.834113
  15 Li:    0.828185
  16 O :   -0.263922
  17 C :   -0.224946
  18 H :    0.138563
  19 H :    0.150736
  20 H :    0.139064
Sum of atomic charges:   -0.0000000

LOEWDIN ATOMIC CHARGES
----------------------
   0 C :   -0.258948
   1 C :   -0.153293
   2 C :   -0.152212
   3 C :   -0.130255
   4 C :   -0.113582
   5 C :   -0.094141
   6 H :    0.152509
   7 H :    0.149872
   8 H :    0.146167
   9 H :    0.146261
  10 C :   -0.374461
  11 C :   -0.300869
  12 H :    0.114091
  13 H :    0.111123
  14 O :   -0.159485
  15 Li:    0.679936
  16 O :    0.213378
  17 C :   -0.314224
  18 H :    0.111028
  19 H :    0.115753
  20 H :    0.111354

  Mayer bond orders larger than 0.100000
B(  0-C ,  1-C ) :   1.2884 B(  0-C ,  5-C ) :   1.3382 B(  0-C , 16-O ) :   1.1298
B(  1-C ,  2-C ) :   1.3402 B(  1-C ,  7-H ) :   0.9633 B(  2-C ,  3-C ) :   1.4701
B(  2-C ,  8-H ) :   0.9707 B(  3-C ,  4-C ) :   1.3147 B(  3-C ,  9-H ) :   0.9726
B(  4-C ,  5-C ) :   1.3803 B(  4-C , 10-C ) :   0.9827 B(  5-C ,  6-H ) :   0.9912
B( 10-C , 11-C ) :   1.7076 B( 10-C , 14-O ) :   1.0579 B( 11-C , 12-H ) :   0.9529
B( 11-C , 13-H ) :   0.9629 B( 11-C , 14-O ) :   0.1313 B( 14-O , 15-Li) :   0.3177
B( 16-O , 17-C ) :   0.9439 B( 17-C , 18-H ) :   0.9578 B( 17-C , 19-H ) :   0.9630
B( 17-C , 20-H ) :   0.9580

Dispersion correction           -0.028638114
FINAL SINGLE POINT ENERGY      -506.684610258230

DIPOLE MOMENT
-------------
                                X             Y             Z
Electronic contribution:      6.72958      11.80194      -3.87975
Nuclear contribution   :     -7.64698      -9.24179       2.80308
                        -----------------------------------------
Total Dipole Moment    :     -0.91740       2.56014      -1.07667
                        -----------------------------------------
Magnitude (a.u.)       :      2.92492
Magnitude (Debye)      :      7.43457

VIBRATIONAL FREQUENCIES
-----------------------

Scaling factor for frequencies =  1.000000000 (already applied!)

   0:         0.00 cm**-1
   1:         0.00 cm**-1
   2:         0.00 cm**-1
   3:         0.00 cm**-1
   4:         0.00 cm**-1
   5:         0.00 cm**-1
   6:        35.79 cm**-1
   7:        75.25 cm**-1
   8:        85.04 cm**-1
   9:       105.26 cm**-1
  10:       160.93 cm**-1
  11:       169.44 cm**-1
  12:       203.39 cm**-1
  13:       262.10 cm**-1
  14:       274.53 cm**-1
  15:       343.44 cm**-1
  16:       394.16 cm**-1
  17:       429.19 cm**-1
  18:       475.09 cm**-1
  19:       519.28 cm**-1
  20:       554.45 cm**-1
  21:       580.12 cm**-1
  22:       660.17 cm**-1
  23:       676.78 cm**-1
  24:       679.16 cm**-1
  25:       703.43 cm**-1
  26:       733.08 cm**-1
  27:       738.76 cm**-1
  28:       777.09 cm**-1
  29:       865.57 cm**-1
  30:       869.01 cm**-1
  31:       883.31 cm**-1
  32:       946.78 cm**-1
  33:       992.85 cm**-1
  34:      1027.44 cm**-1
  35:      1029.22 cm**-1
  36:      1090.97 cm**-1
  37:      1097.71 cm**-1
  38:      1149.04 cm**-1
  39:      1172.63 cm**-1
  40:      1184.63 cm**-1
  41:      1221.95 cm**-1
  42:      1280.97 cm**-1
  43:      1318.89 cm**-1
  44:      1351.49 cm**-1
  45:      1396.33 cm**-1
  46:      1435.12 cm**-1
  47:      1454.01 cm**-1
  48:      1474.32 cm**-1
  49:      1488.19 cm**-1
  50:      1488.66 cm**-1
  51:      1567.07 cm**-1
  52:      1590.33 cm**-1
  53:      1604.70 cm**-1
  54:      2982.36 cm**-1
  55:      3041.50 cm**-1
  56:      3106.89 cm**-1
  57:      3110.87 cm**-1
  58:      3130.67 cm**-1
  59:      3154.51 cm**-1
  60:      3158.04 cm**-1
  61:      3172.40 cm**-1
  62:      3198.10 cm**-1

IR SPECTRUM
-----------

 Mode   freq       eps      Int      T**2         TX        TY        TZ
       cm**-1   L/(mol*cm) km/mol    a.u.
----------------------------------------------------------------------------
  6:     35.79   0.002966   14.99  0.025857  (-0.041837 -0.056088 -0.144778)
  7:     75.25   0.016575   83.76  0.068734  (-0.204821 -0.065703 -0.149883)
  8:     85.04   0.005960   30.12  0.021872  ( 0.139721  0.011783 -0.047020)
  9:    105.26   0.017322   87.54  0.051356  (-0.112794  0.059469  0.187342)
 10:    160.93   0.001564    7.90  0.003033  (-0.037112 -0.025040 -0.032074)
 11:    169.44   0.001946    9.83  0.003584  (-0.049348 -0.011791  0.031773)
 12:    203.39   0.000097    0.49  0.000149  ( 0.002571  0.005508  0.010590)
 13:    262.10   0.000118    0.60  0.000141  (-0.003741  0.004866  0.010160)
 14:    274.53   0.001637    8.28  0.001861  ( 0.038046 -0.019666  0.005199)
 15:    343.44   0.003015   15.24  0.002739  (-0.044867 -0.026631  0.004139)
 16:    394.16   0.001004    5.08  0.000795  ( 0.017847 -0.020714  0.006892)
 17:    429.19   0.000636    3.21  0.000462  ( 0.002082 -0.005995  0.020545)
 18:    475.09   0.002788   14.09  0.001831  (-0.019053 -0.030162  0.023634)
 19:    519.28   0.000825    4.17  0.000496  ( 0.009884  0.019669  0.003330)
 20:    554.45   0.003260   16.47  0.001835  ( 0.004607  0.042162 -0.005989)
 21:    580.12   0.004391   22.19  0.002362  (-0.045930 -0.015578  0.003088)
 22:    660.17   0.000599    3.03  0.000283  (-0.009875  0.000856 -0.013594)
 23:    676.78   0.009345   47.23  0.004309  ( 0.013321 -0.004616 -0.064112)
 24:    679.16   0.011137   56.28  0.005117  ( 0.008133  0.071067 -0.000921)
 25:    703.43   0.002401   12.13  0.001065  ( 0.010459  0.004962 -0.030513)
 26:    733.08   0.021712  109.73  0.009243  ( 0.033216 -0.077439 -0.046288)
 27:    738.76   0.024718  124.91  0.010441  (-0.014764  0.024958 -0.097982)
 28:    777.09   0.005652   28.56  0.002270  ( 0.005675 -0.000454  0.047301)
 29:    865.57   0.000341    1.73  0.000123  ( 0.006000  0.000507 -0.009320)
 30:    869.01   0.003893   19.67  0.001398  ( 0.031285 -0.019959  0.004574)
 31:    883.31   0.005905   29.84  0.002086  (-0.002594 -0.002456 -0.045536)
 32:    946.78   0.000042    0.21  0.000014  (-0.001706  0.000785 -0.003189)
 33:    992.85   0.001410    7.13  0.000443  (-0.019833 -0.007049 -0.000523)
 34:   1027.44   0.019862  100.38  0.006033  ( 0.046408  0.058594 -0.021112)
 35:   1029.22   0.029656  149.87  0.008992  ( 0.088502 -0.028723  0.018284)
 36:   1090.97   0.014254   72.03  0.004077  (-0.045632 -0.040970  0.017788)
 37:   1097.71   0.007288   36.83  0.002072  ( 0.014553 -0.042252  0.008646)
 38:   1149.04   0.000306    1.55  0.000083  ( 0.000407  0.001319  0.009018)
 39:   1172.63   0.002426   12.26  0.000646  ( 0.015162 -0.019680  0.005346)
 40:   1184.63   0.004713   23.82  0.001241  (-0.030372  0.017002 -0.005472)
 41:   1221.95   0.067909  343.19  0.017343  (-0.100814  0.082783 -0.018064)
 42:   1280.97   0.016234   82.04  0.003955  ( 0.060376  0.013478 -0.011312)
 43:   1318.89   0.049316  249.22  0.011669  ( 0.025464  0.098247 -0.036984)
 44:   1351.49   0.008040   40.63  0.001856  ( 0.030238  0.028924 -0.010272)
 45:   1396.33   0.038333  193.72  0.008567  (-0.014145  0.084368 -0.035340)
 46:   1435.12   0.008223   41.56  0.001788  (-0.027961  0.031159 -0.005952)
 47:   1454.01   0.002380   12.03  0.000511  ( 0.018617 -0.011278  0.006087)
 48:   1474.32   0.002224   11.24  0.000471  ( 0.008833 -0.006886 -0.018580)
 49:   1488.19   0.003516   17.77  0.000737  (-0.024604  0.010802 -0.003914)
 50:   1488.66   0.021479  108.54  0.004502  (-0.059303  0.029980 -0.009319)
 51:   1567.07   0.094955  479.86  0.018909  ( 0.100309 -0.088494  0.031876)
 52:   1590.33   0.012534   63.34  0.002459  ( 0.013423 -0.037190  0.029935)
 53:   1604.70   0.018652   94.26  0.003627  ( 0.059327  0.010333 -0.000824)
 54:   2982.36   0.013433   67.88  0.001406  (-0.036004 -0.010392  0.001119)
 55:   3041.50   0.010001   50.54  0.001026  ( 0.000202 -0.003290 -0.031862)
 56:   3106.89   0.006312   31.90  0.000634  (-0.016142  0.019201 -0.002181)
 57:   3110.87   0.003676   18.58  0.000369  ( 0.018801  0.003608  0.001494)
 58:   3130.67   0.004033   20.38  0.000402  (-0.004638 -0.019386  0.002167)
 59:   3154.51   0.004888   24.70  0.000484  ( 0.014560 -0.016464  0.000678)
 60:   3158.04   0.001542    7.79  0.000152  (-0.006750  0.010252 -0.001311)
 61:   3172.40   0.001924    9.72  0.000189  (-0.011171 -0.008002  0.000656)
 62:   3198.10   0.004049   20.46  0.000395  ( 0.006426  0.018022 -0.005388)

--------------------------
THERMOCHEMISTRY AT 298.15K
--------------------------

Temperature         ... 298.15 K
Pressure            ... 1.00 atm
Total Mass          ... 156.11 AMU

Throughout the following assumptions are being made:
  (1) The electronic state is orbitally nondegenerate
  (2) There are no thermally accessible electronically excited states
  (3) Hindered rotations indicated by low frequency modes are not
      treated as such but are treated as vibrations and this may
      cause some error
  (4) All equations used are the standard statistical mechanics
      equations for an ideal gas
  (5) All vibrations are strictly harmonic

freq.      35.79  E(vib)   ...       0.54
freq.      75.25  E(vib)   ...       0.49
freq.      85.04  E(vib)   ...       0.48
freq.     105.26  E(vib)   ...       0.45
freq.     160.93  E(vib)   ...       0.39
freq.     169.44  E(vib)   ...       0.38
freq.     203.39  E(vib)   ...       0.35
freq.     262.10  E(vib)   ...       0.29
freq.     274.53  E(vib)   ...       0.28
freq.     343.44  E(vib)   ...       0.23
freq.     394.16  E(vib)   ...       0.20
freq.     429.19  E(vib)   ...       0.18
freq.     475.09  E(vib)   ...       0.15
freq.     519.28  E(vib)   ...       0.13
freq.     554.45  E(vib)   ...       0.12
freq.     580.12  E(vib)   ...       0.11
freq.     660.17  E(vib)   ...       0.08
freq.     676.78  E(vib)   ...       0.08
freq.     679.16  E(vib)   ...       0.08
freq.     703.43  E(vib)   ...       0.07
freq.     733.08  E(vib)   ...       0.06
freq.     738.76  E(vib)   ...       0.06
freq.     777.09  E(vib)   ...       0.05
freq.     865.57  E(vib)   ...       0.04
freq.     869.01  E(vib)   ...       0.04
freq.     883.31  E(vib)   ...       0.04
freq.     946.78  E(vib)   ...       0.03
freq.     992.85  E(vib)   ...       0.02
freq.    1027.44  E(vib)   ...       0.02
freq.    1029.22  E(vib)   ...       0.02
freq.    1090.97  E(vib)   ...       0.02
freq.    1097.71  E(vib)   ...       0.02
freq.    1149.04  E(vib)   ...       0.01
freq.    1172.63  E(vib)   ...       0.01
freq.    1184.63  E(vib)   ...       0.01
freq.    1221.95  E(vib)   ...       0.01
freq.    1280.97  E(vib)   ...       0.01
freq.    1318.89  E(vib)   ...       0.01
freq.    1351.49  E(vib)   ...       0.01
freq.    1396.33  E(vib)   ...       0.00
freq.    1435.12  E(vib)   ...       0.00
freq.    1454.01  E(vib)   ...       0.00
freq.    1474.32  E(vib)   ...       0.00
freq.    1488.19  E(vib)   ...       0.00
freq.    1488.66  E(vib)   ...       0.00
freq.    1567.07  E(vib)   ...       0.00
freq.    1590.33  E(vib)   ...       0.00
freq.    1604.70  E(vib)   ...       0.00
freq.    2982.36  E(vib)   ...       0.00
freq.    3041.50  E(vib)   ...       0.00
freq.    3106.89  E(vib)   ...       0.00
freq.    3110.87  E(vib)   ...       0.00
freq.    3130.67  E(vib)   ...       0.00
freq.    3154.51  E(vib)   ...       0.00
freq.    3158.04  E(vib)   ...       0.00
freq.    3172.40  E(vib)   ...       0.00
freq.    3198.10  E(vib)   ...       0.00

------------
INNER ENERGY
------------

The inner energy is: U= E(el) + E(ZPE) + E(vib) + E(rot) + E(trans)
    E(el)   - is the total energy from the electronic structure calculation
              = E(kin-el) + E(nuc-el) + E(el-el) + E(nuc-nuc)
    E(ZPE)  - the the zero temperature vibrational energy from the frequency calculation
    E(vib)  - the the finite temperature correction to E(ZPE) due to population
              of excited vibrational states
    E(rot)  - is the rotational thermal energy
    E(trans)- is the translational thermal energy

Summary of contributions to the inner energy U:
Electronic energy                ...   -506.68461026 Eh
Zero point energy                ...      0.15644734 Eh      98.17 kcal/mol
Thermal vibrational correction   ...      0.00892457 Eh       5.60 kcal/mol
Thermal rotational correction    ...      0.00141627 Eh       0.89 kcal/mol
Thermal translational correction ...      0.00141627 Eh       0.89 kcal/mol
-----------------------------------------------------------------------
Total thermal energy                   -506.51640580 Eh

Summary of corrections to the electronic energy:
(perhaps to be used in another calculation)
Total thermal correction                  0.01175711 Eh       7.38 kcal/mol
Non-thermal (ZPE) correction              0.15644734 Eh      98.17 kcal/mol
-----------------------------------------------------------------------
Total correction                          0.16820446 Eh     105.55 kcal/mol

--------
ENTHALPY
--------

The enthalpy is H = U + kB*T
                kB is Boltzmann's constant
Total free energy                 ...   -506.51640580 Eh
Thermal Enthalpy correction       ...      0.00094421 Eh       0.59 kcal/mol
-----------------------------------------------------------------------
Total Enthalpy                    ...   -506.51546160 Eh

Note: Only C1 symmetry has been detected, increase convergence thresholds
      if your molecule has a higher symmetry. Symmetry factor of 1.0 is
      used for the rotational entropy correction.

Note: Rotational entropy computed according to Herzberg
Infrared and Raman Spectra, Chapter V,1, Van Nostrand Reinhold, 1945
Point Group:  C1, Symmetry Number:   1
Rotational constants in cm-1:     0.060471     0.021130     0.015833

Vibrational entropy computed according to the QRRHO of S. Grimme
Chem.Eur.J. 2012 18 9955

-------
ENTROPY
-------

The entropy contributions are T*S = T*(S(el)+S(vib)+S(rot)+S(trans))
     S(el)   - electronic entropy
     S(vib)  - vibrational entropy
     S(rot)  - rotational entropy
     S(trans)- translational entropy
The entropies will be listed as multiplied by the temperature to get
units of energy

Electronic entropy                ...      0.00000000 Eh      0.00 kcal/mol
Vibrational entropy               ...      0.01555973 Eh      9.76 kcal/mol
Rotational entropy                ...      0.01461333 Eh      9.17 kcal/mol
Translational entropy             ...      0.01950204 Eh     12.24 kcal/mol
-----------------------------------------------------------------------
Final entropy term                ...      0.04967509 Eh     31.17 kcal/mol

In case the symmetry of your molecule has not been determined correctly
or in case you have a reason to use a different symmetry number we print
out the resulting rotational entropy values for sn=1,12 :
 --------------------------------------------------------
|  sn= 1 | S(rot)=       0.01461333 Eh      9.17 kcal/mol|
|  sn= 2 | S(rot)=       0.01395887 Eh      8.76 kcal/mol|
|  sn= 3 | S(rot)=       0.01357604 Eh      8.52 kcal/mol|
|  sn= 4 | S(rot)=       0.01330441 Eh      8.35 kcal/mol|
|  sn= 5 | S(rot)=       0.01309373 Eh      8.22 kcal/mol|
|  sn= 6 | S(rot)=       0.01292158 Eh      8.11 kcal/mol|

                             ****ORCA TERMINATED NORMALLY****
TOTAL RUN TIME: 0 days 2 hours 33 minutes 47 seconds 946 msec
