                         Program Version 5.0.2 -  RELEASE  -
|  1> ! PW6B95 D3BJ def2-QZVP RIJK def2/JK tightSCF CPCM(THF)
|  2> ! sp Pal4
|  3>
|  4> *xyz 0 1
|  5> C   -3.21583129068282      1.49898317902505     -0.05435336789595
|  6>   C   -3.28021957724449      0.11110628456426      0.10155022923401
|  7>   C   -2.08101805543928     -0.60968763641377      0.17783287056523
|  8>   C   -0.84777523844178      0.02660521636685      0.10867698123177
|  9>   C   -0.77930577521364      1.42630061463212     -0.04335865945670
| 10>   C   -1.97485083252073      2.14381868043246     -0.13119864384363
| 11>   H   -1.94356821267785      3.22150798904297     -0.25464169062316
| 12>   H   -4.22972804229089     -0.40882206316846      0.15570951280416
| 13>   H   -2.12389942957123     -1.69052733162748      0.28639860439794
| 14>   H   0.06245769387956     -0.56228306788821      0.15125672985333
| 15>   C   0.52072678037498      2.17572593175014     -0.12223656879966
| 16>   C   1.68642271404132      1.59314133940731      0.27662117966652
| 17>   H   1.71708587477121      0.58513230793081      0.67264749313652
| 18>   H   2.61981720889267      2.14600026656276      0.21987266380935
| 19>   O   0.44316840980918      3.41069386407169     -0.57447047540763
| 20>   Li  0.33175045913969      4.96225131505443     -1.15214911215545
| 21>   O   -4.31695348237428      2.31661682468411     -0.14276404978643
| 22>   C   -5.60537149508282      1.68765860493690     -0.05549078651557
| 23>   H   -5.75037612612436      0.97900298522990     -0.87940105758433
| 24>   H   -6.33088594457833      2.49807699702272     -0.12980618022464
| 25>   H   -5.72069702496605      1.16799288698341      0.90280186629432
| 26> *
| 27>
| 28>                          ****END OF INPUT****

CARTESIAN COORDINATES (ANGSTROEM)
---------------------------------
  C     -3.215831    1.498983   -0.054353
  C     -3.280220    0.111106    0.101550
  C     -2.081018   -0.609688    0.177833
  C     -0.847775    0.026605    0.108677
  C     -0.779306    1.426301   -0.043359
  C     -1.974851    2.143819   -0.131199
  H     -1.943568    3.221508   -0.254642
  H     -4.229728   -0.408822    0.155710
  H     -2.123899   -1.690527    0.286399
  H      0.062458   -0.562283    0.151257
  C      0.520727    2.175726   -0.122237
  C      1.686423    1.593141    0.276621
  H      1.717086    0.585132    0.672647
  H      2.619817    2.146000    0.219873
  O      0.443168    3.410694   -0.574470
  Li     0.331750    4.962251   -1.152149
  O     -4.316953    2.316617   -0.142764
  C     -5.605371    1.687659   -0.055491
  H     -5.750376    0.979003   -0.879401
  H     -6.330886    2.498077   -0.129806
  H     -5.720697    1.167993    0.902802

 Total Charge           Charge          ....    0
 Multiplicity           Mult            ....    1
 Number of Electrons    NEL             ....   82
 Basis Dimension        Dim             ....  932

ORBITAL ENERGIES
----------------

  NO   OCC          E(Eh)            E(eV)
   0   2.0000     -19.324321      -525.8415
   1   2.0000     -19.234337      -523.3929
   2   2.0000     -10.357682      -281.8469
   3   2.0000     -10.341192      -281.3981
   4   2.0000     -10.337401      -281.2950
   5   2.0000     -10.303449      -280.3711
   6   2.0000     -10.298481      -280.2359
   7   2.0000     -10.294444      -280.1261
   8   2.0000     -10.289071      -279.9799
   9   2.0000     -10.288906      -279.9754
  10   2.0000     -10.250481      -278.9298
  11   2.0000      -2.047521       -55.7159
  12   2.0000      -1.088470       -29.6188
  13   2.0000      -0.999093       -27.1867
  14   2.0000      -0.873480       -23.7686
  15   2.0000      -0.780253       -21.2318
  16   2.0000      -0.773945       -21.0601
  17   2.0000      -0.722613       -19.6633
  18   2.0000      -0.711052       -19.3487
  19   2.0000      -0.627361       -17.0714
  20   2.0000      -0.613851       -16.7037
  21   2.0000      -0.559810       -15.2332
  22   2.0000      -0.523501       -14.2452
  23   2.0000      -0.496484       -13.5100
  24   2.0000      -0.494112       -13.4455
  25   2.0000      -0.482686       -13.1346
  26   2.0000      -0.464963       -12.6523
  27   2.0000      -0.442983       -12.0542
  28   2.0000      -0.436534       -11.8787
  29   2.0000      -0.418956       -11.4004
  30   2.0000      -0.404008       -10.9936
  31   2.0000      -0.390503       -10.6261
  32   2.0000      -0.374519       -10.1912
  33   2.0000      -0.370494       -10.0817
  34   2.0000      -0.367835       -10.0093
  35   2.0000      -0.342005        -9.3064
  36   2.0000      -0.334439        -9.1006
  37   2.0000      -0.270847        -7.3701
  38   2.0000      -0.263191        -7.1618
  39   2.0000      -0.240152        -6.5349
  40   2.0000      -0.204704        -5.5703
  41   0.0000      -0.020496        -0.5577
  42   0.0000      -0.016318        -0.4440
  43   0.0000       0.004216         0.1147
  44   0.0000       0.019679         0.5355
  45   0.0000       0.022896         0.6230

MULLIKEN ATOMIC CHARGES
-----------------------
   0 C :    0.097402
   1 C :   -0.116413
   2 C :   -0.190320
   3 C :   -0.133261
   4 C :    0.049793
   5 C :   -0.026864
   6 H :    0.099208
   7 H :    0.114600
   8 H :    0.124430
   9 H :    0.107084
  10 C :    0.134820
  11 C :   -0.385316
  12 H :    0.080534
  13 H :    0.107051
  14 O :   -0.427577
  15 Li:    0.484910
  16 O :   -0.381935
  17 C :   -0.080397
  18 H :    0.107304
  19 H :    0.127575
  20 H :    0.107373
Sum of atomic charges:   -0.0000000

LOEWDIN ATOMIC CHARGES
----------------------
   0 C :   -0.350533
   1 C :    0.049175
   2 C :    0.051459
   3 C :    0.065869
   4 C :   -0.089021
   5 C :    0.093360
   6 H :   -0.038305
   7 H :   -0.062081
   8 H :   -0.054853
   9 H :   -0.057554
  10 C :   -0.457054
  11 C :    0.128869
  12 H :   -0.103956
  13 H :   -0.100274
  14 O :    0.415152
  15 Li:    0.148233
  16 O :    0.487316
  17 C :    0.064254
  18 H :   -0.062632
  19 H :   -0.064984
  20 H :   -0.062439

  Mayer bond orders larger than 0.100000
B(  0-C ,  1-C ) :   1.3555 B(  0-C ,  5-C ) :   1.2948 B(  0-C , 16-O ) :   1.1202
B(  1-C ,  2-C ) :   1.3395 B(  1-C ,  7-H ) :   0.9557 B(  2-C ,  3-C ) :   1.4388
B(  2-C ,  8-H ) :   0.9535 B(  3-C ,  4-C ) :   1.2829 B(  3-C ,  9-H ) :   0.9561
B(  4-C ,  5-C ) :   1.3143 B(  4-C , 10-C ) :   0.9684 B(  5-C ,  6-H ) :   0.9548
B( 10-C , 11-C ) :   1.6764 B( 10-C , 14-O ) :   1.1843 B( 11-C , 12-H ) :   0.9808
B( 11-C , 13-H ) :   0.9682 B( 14-O , 15-Li) :   0.9158 B( 16-O , 17-C ) :   0.9037
B( 17-C , 18-H ) :   0.9621 B( 17-C , 19-H ) :   0.9682 B( 17-C , 20-H ) :   0.9613

Dispersion correction           -0.011757794
FINAL SINGLE POINT ENERGY      -507.259467628089

DIPOLE MOMENT
-------------
                                X             Y             Z
Electronic contribution:      6.72396      11.69842      -3.86023
Nuclear contribution   :     -7.64698      -9.24179       2.80308
                        -----------------------------------------
Total Dipole Moment    :     -0.92301       2.45663      -1.05716
                        -----------------------------------------
Magnitude (a.u.)       :      2.82923
Magnitude (Debye)      :      7.19134

Rotational constants in cm-1:     0.060471     0.021130     0.015833
Rotational constants in MHz :  1812.869389   633.460779   474.647750

                             ****ORCA TERMINATED NORMALLY****
TOTAL RUN TIME: 0 days 0 hours 10 minutes 58 seconds 925 msec
