                         Program Version 5.0.2 -  RELEASE  -
|  1> ! TPSS D3BJ def2-TZVP RI def2/J CPCM(THF)
|  2> ! Opt numfreq Pal2
|  3>
|  4> * xyz 0 1
|  5> O       -2.1073043855     -9.0106715152     -2.2335551598
|  6> H       -1.1373043855     -9.0106715152     -2.2335551598
|  7> H       -2.4306341972     -8.2660931991     -2.7645551261
|  8> *
|  9>
| 10>                          ****END OF INPUT****
 Total Charge           Charge          ....    0
 Multiplicity           Mult            ....    1
 Number of Electrons    NEL             ....   10
Dispersion correction           -0.000420276
FINAL SINGLE POINT ENERGY       -76.472811618007
Dispersion correction            ... done
Dispersion correction           -0.000420371
FINAL SINGLE POINT ENERGY       -76.473305665517
Dispersion correction            ... done
Dispersion correction           -0.000420481
FINAL SINGLE POINT ENERGY       -76.473508709092
Dispersion correction            ... done
Dispersion correction           -0.000420479
FINAL SINGLE POINT ENERGY       -76.473509502249
Dispersion correction            ... done
                    ***********************HURRAY********************

CARTESIAN COORDINATES (ANGSTROEM)
---------------------------------
  O     -2.121926   -9.027533   -2.221530
  H     -1.152313   -8.989398   -2.248727
  H     -2.401004   -8.270506   -2.761408

 Multiplicity           Mult            ....    1
 Number of Electrons    NEL             ....   10
 Basis Dimension        Dim             ....   43

ORBITAL ENERGIES
----------------

  NO   OCC          E(Eh)            E(eV)
   0   2.0000     -18.879201      -513.7292
   1   2.0000      -0.937841       -25.5199
   2   2.0000      -0.473547       -12.8859
   3   2.0000      -0.340683        -9.2704
   4   2.0000      -0.261919        -7.1272
   5   0.0000       0.022094         0.6012
   6   0.0000       0.100063         2.7229
   7   0.0000       0.335604         9.1323
   8   0.0000       0.390406        10.6235
   9   0.0000       0.404664        11.0115

MULLIKEN ATOMIC CHARGES
-----------------------
   0 O :   -0.710789
   1 H :    0.355386
   2 H :    0.355403
Sum of atomic charges:   -0.0000000

LOEWDIN ATOMIC CHARGES
----------------------
   0 O :   -0.346132
   1 H :    0.173044
   2 H :    0.173088

  Mayer bond orders larger than 0.100000
B(  0-O ,  1-H ) :   0.8830 B(  0-O ,  2-H ) :   0.8830

Dispersion correction           -0.000420479
FINAL SINGLE POINT ENERGY       -76.473509507401

DIPOLE MOMENT
-------------
                                X             Y             Z
Electronic contribution:     -0.04499      -0.05182       0.03691
Nuclear contribution   :      0.57477       0.66186      -0.47201
                        -----------------------------------------
Total Dipole Moment    :      0.52978       0.61004      -0.43510
                        -----------------------------------------
Magnitude (a.u.)       :      0.91767
Magnitude (Debye)      :      2.33254

VIBRATIONAL FREQUENCIES
-----------------------

Scaling factor for frequencies =  1.000000000 (already applied!)

   0:         0.00 cm**-1
   1:         0.00 cm**-1
   2:         0.00 cm**-1
   3:         0.00 cm**-1
   4:         0.00 cm**-1
   5:         0.00 cm**-1
   6:      1600.97 cm**-1
   7:      3692.75 cm**-1
   8:      3780.29 cm**-1

IR SPECTRUM
-----------

 Mode   freq       eps      Int      T**2         TX        TY        TZ
       cm**-1   L/(mol*cm) km/mol    a.u.
----------------------------------------------------------------------------
  6:   1600.97   0.020630  104.26  0.004021  (-0.036557 -0.042180  0.030094)
  7:   3692.75   0.003024   15.28  0.000256  ( 0.009114  0.010704 -0.007611)
  8:   3780.29   0.015914   80.43  0.001314  ( 0.029538 -0.017110  0.012187)

--------------------------
THERMOCHEMISTRY AT 298.15K
--------------------------

Temperature         ... 298.15 K
Pressure            ... 1.00 atm
Total Mass          ... 18.02 AMU

Throughout the following assumptions are being made:
  (1) The electronic state is orbitally nondegenerate
  (2) There are no thermally accessible electronically excited states
  (3) Hindered rotations indicated by low frequency modes are not
      treated as such but are treated as vibrations and this may
      cause some error
  (4) All equations used are the standard statistical mechanics
      equations for an ideal gas
  (5) All vibrations are strictly harmonic

freq.    1600.97  E(vib)   ...       0.00
freq.    3692.75  E(vib)   ...       0.00
freq.    3780.29  E(vib)   ...       0.00

------------
INNER ENERGY
------------

The inner energy is: U= E(el) + E(ZPE) + E(vib) + E(rot) + E(trans)
    E(el)   - is the total energy from the electronic structure calculation
              = E(kin-el) + E(nuc-el) + E(el-el) + E(nuc-nuc)
    E(ZPE)  - the the zero temperature vibrational energy from the frequency calculation
    E(vib)  - the the finite temperature correction to E(ZPE) due to population
              of excited vibrational states
    E(rot)  - is the rotational thermal energy
    E(trans)- is the translational thermal energy

Summary of contributions to the inner energy U:
Electronic energy                ...    -76.47350951 Eh
Zero point energy                ...      0.02067213 Eh      12.97 kcal/mol
Thermal vibrational correction   ...      0.00000322 Eh       0.00 kcal/mol
Thermal rotational correction    ...      0.00141627 Eh       0.89 kcal/mol
Thermal translational correction ...      0.00141627 Eh       0.89 kcal/mol
-----------------------------------------------------------------------
Total thermal energy                    -76.45000161 Eh

Summary of corrections to the electronic energy:
(perhaps to be used in another calculation)
Total thermal correction                  0.00283576 Eh       1.78 kcal/mol
Non-thermal (ZPE) correction              0.02067213 Eh      12.97 kcal/mol
-----------------------------------------------------------------------
Total correction                          0.02350790 Eh      14.75 kcal/mol

--------
ENTHALPY
--------

The enthalpy is H = U + kB*T
                kB is Boltzmann's constant
Total free energy                 ...    -76.45000161 Eh
Thermal Enthalpy correction       ...      0.00094421 Eh       0.59 kcal/mol
-----------------------------------------------------------------------
Total Enthalpy                    ...    -76.44905740 Eh

Note: Rotational entropy computed according to Herzberg
Infrared and Raman Spectra, Chapter V,1, Van Nostrand Reinhold, 1945
Point Group:  C2v, Symmetry Number:   2
Rotational constants in cm-1:    26.324538    14.300736     9.266652

Vibrational entropy computed according to the QRRHO of S. Grimme
Chem.Eur.J. 2012 18 9955

-------
ENTROPY
-------

The entropy contributions are T*S = T*(S(el)+S(vib)+S(rot)+S(trans))
     S(el)   - electronic entropy
     S(vib)  - vibrational entropy
     S(rot)  - rotational entropy
     S(trans)- translational entropy
The entropies will be listed as multiplied by the temperature to get
units of energy

Electronic entropy                ...      0.00000000 Eh      0.00 kcal/mol
Vibrational entropy               ...      0.00000364 Eh      0.00 kcal/mol
Rotational entropy                ...      0.00500540 Eh      3.14 kcal/mol
Translational entropy             ...      0.01644380 Eh     10.32 kcal/mol
-----------------------------------------------------------------------
Final entropy term                ...      0.02145284 Eh     13.46 kcal/mol

In case the symmetry of your molecule has not been determined correctly
or in case you have a reason to use a different symmetry number we print
out the resulting rotational entropy values for sn=1,12 :
 --------------------------------------------------------
|  sn= 1 | S(rot)=       0.00565986 Eh      3.55 kcal/mol|
|  sn= 2 | S(rot)=       0.00500540 Eh      3.14 kcal/mol|
|  sn= 3 | S(rot)=       0.00462257 Eh      2.90 kcal/mol|
|  sn= 4 | S(rot)=       0.00435094 Eh      2.73 kcal/mol|
|  sn= 5 | S(rot)=       0.00414026 Eh      2.60 kcal/mol|
|  sn= 6 | S(rot)=       0.00396811 Eh      2.49 kcal/mol|
|  sn= 7 | S(rot)=       0.00382257 Eh      2.40 kcal/mol|
|  sn= 8 | S(rot)=       0.00369649 Eh      2.32 kcal/mol|
|  sn= 9 | S(rot)=       0.00358528 Eh      2.25 kcal/mol|
|  sn=10 | S(rot)=       0.00348580 Eh      2.19 kcal/mol|
|  sn=11 | S(rot)=       0.00339581 Eh      2.13 kcal/mol|
|  sn=12 | S(rot)=       0.00331366 Eh      2.08 kcal/mol|
 --------------------------------------------------------

-------------------
GIBBS FREE ENERGY
-------------------

The Gibbs free energy is G = H - T*S

Total enthalpy                    ...    -76.44905740 Eh
Total entropy correction          ...     -0.02145284 Eh    -13.46 kcal/mol
-----------------------------------------------------------------------
Final Gibbs free energy         ...    -76.47051024 Eh

For completeness - the Gibbs free energy minus the electronic energy
G-E(el)                           ...      0.00299926 Eh      1.88 kcal/mol

                             ****ORCA TERMINATED NORMALLY****
TOTAL RUN TIME: 0 days 0 hours 1 minutes 38 seconds 608 msec
