                         Program Version 5.0.2 -  RELEASE  -
|  1> ! PW6B95 D3BJ def2-QZVP RIJK def2/JK tightSCF CPCM(THF)
|  2> ! sp Pal2
|  3>
|  4> * xyz 0 1
|  5>   O   -2.12192594251402     -9.02753288141917     -2.22153038725351
|  6>   H   -1.15231253859335     -8.98939778919052     -2.24872663008035
|  7>   H   -2.40100448709264     -8.27050555889031     -2.76140842836614
|  8> *
|  9>
| 10>                          ****END OF INPUT****

CARTESIAN COORDINATES (ANGSTROEM)
---------------------------------
  O     -2.121926   -9.027533   -2.221530
  H     -1.152313   -8.989398   -2.248727
  H     -2.401004   -8.270506   -2.761408

 Total Charge           Charge          ....    0
 Multiplicity           Mult            ....    1
 Number of Electrons    NEL             ....   10
 Basis Dimension        Dim             ....  117

ORBITAL ENERGIES
----------------

  NO   OCC          E(Eh)            E(eV)
   0   2.0000     -19.296531      -525.0853
   1   2.0000      -1.038700       -28.2645
   2   2.0000      -0.542241       -14.7551
   3   2.0000      -0.414885       -11.2896
   4   2.0000      -0.338378        -9.2077
   5   0.0000       0.025413         0.6915
   6   0.0000       0.092380         2.5138
   7   0.0000       0.232247         6.3198
   8   0.0000       0.261037         7.1032
   9   0.0000       0.264231         7.1901

MULLIKEN ATOMIC CHARGES
-----------------------
   0 O :   -0.572702
   1 H :    0.286326
   2 H :    0.286376
Sum of atomic charges:    0.0000000

LOEWDIN ATOMIC CHARGES
----------------------
   0 O :    0.654841
   1 H :   -0.327478
   2 H :   -0.327363

  Mayer bond orders larger than 0.100000
B(  0-O ,  1-H ) :   0.9741 B(  0-O ,  2-H ) :   0.9741

Dispersion correction           -0.000123816
FINAL SINGLE POINT ENERGY       -76.558148026006

DIPOLE MOMENT
-------------
                                X             Y             Z
Electronic contribution:     -0.06111      -0.07040       0.05014
Nuclear contribution   :      0.57477       0.66186      -0.47201
                        -----------------------------------------
Total Dipole Moment    :      0.51367       0.59146      -0.42187
                        -----------------------------------------
Magnitude (a.u.)       :      0.88975
Magnitude (Debye)      :      2.26157

Rotational constants in cm-1:    26.324538    14.300736     9.266652
Rotational constants in MHz : 789189.809867 428725.267357 277807.228565

                             ****ORCA TERMINATED NORMALLY****
TOTAL RUN TIME: 0 days 0 hours 0 minutes 13 seconds 215 msec
