                         Program Version 5.0.2 -  RELEASE  -
|  1> ! TPSS D3BJ def2-TZVP RI def2/J  CPCM(THF)
|  2> ! Opt numfreq Pal8
|  3>
|  4> *xyz 0 1
|  5> C        -2.91080564055299   -0.04778620315128    0.22289217444191
|  6> C        -2.87031749902024   -1.43915857592650    0.22004925807772
|  7> C        -1.64635891418826   -2.09116883638061    0.21748060258631
|  8> C        -0.45914495371701   -1.38767720960777    0.21800816174580
|  9> C        -0.48658242985301    0.00863646045207    0.22128059912244
| 10> C        -1.71245073588201    0.66250182209066    0.22346070892279
| 11> H        -1.73734981649373    1.74122290545333    0.22579516023065
| 12> H        -3.77692170480557   -2.02351373377395    0.21968332651940
| 13> H        -1.62928180203763   -3.17150045422719    0.21502923975730
| 14> H         0.47480333575072   -1.92553016274946    0.21551816650811
| 15> C         0.73941615219600    0.85129538553489    0.22257625764124
| 16> C         2.06638505091861    0.13065413534171    0.22647840764639
| 17> H         2.14517923361168   -0.50322578743595    1.10677335574340
| 18> H         2.87071097961000    0.86166989916221    0.23572102986430
| 19> H         2.15528454291910   -0.49070488300505   -0.66200368963644
| 20> O         0.67682813087411    2.06002866121782    0.21928609965912
| 21> O        -4.04513803576070    0.69925292352178    0.22513108471276
| 22> C        -5.28895088354745    0.04187411372702    0.22339476073614
| 23> H        -6.03843554498005    0.83128601980043    0.22459724070307
| 24> H        -5.41794942488240   -0.57920920007046    1.11600044025133
| 25> H        -5.41721713115917   -0.57579724857369   -0.67167788683373
| 26> *
| 27>
| 28>                          ****END OF INPUT****
 Total Charge           Charge          ....    0
 Multiplicity           Mult            ....    1
 Number of Electrons    NEL             ....   80
Dispersion correction           -0.027312756
FINAL SINGLE POINT ENERGY      -499.723760919544
Dispersion correction            ... done
Dispersion correction           -0.027202537
FINAL SINGLE POINT ENERGY      -499.725690589038
Dispersion correction            ... done
Dispersion correction           -0.027187417
FINAL SINGLE POINT ENERGY      -499.725964605638
Dispersion correction            ... done
FINAL SINGLE POINT ENERGY      -499.726014104435
Dispersion correction            ... done
Dispersion correction           -0.027199931
FINAL SINGLE POINT ENERGY      -499.726015710317
Dispersion correction            ... done
Dispersion correction           -0.027199628
FINAL SINGLE POINT ENERGY      -499.726026658124
Dispersion correction            ... done
                    ***********************HURRAY********************

CARTESIAN COORDINATES (ANGSTROEM)
---------------------------------
  C     -2.917416   -0.022078    0.222657
  C     -2.890244   -1.425004    0.219338
  C     -1.660347   -2.088158    0.217756
  C     -0.463341   -1.378997    0.219506
  C     -0.492043    0.026812    0.222678
  C     -1.719231    0.696567    0.224199
  H     -1.739612    1.781704    0.226605
  H     -3.808866   -2.000374    0.218015
  H     -1.647041   -3.174350    0.215125
  H      0.480040   -1.913376    0.218244
  C      0.761939    0.841479    0.224068
  C      2.093012    0.121998    0.224875
  H      2.178906   -0.525770    1.104726
  H      2.899093    0.856700    0.228939
  H      2.182367   -0.519136   -0.659576
  O      0.712995    2.071469    0.224399
  O     -4.063598    0.723692    0.224542
  C     -5.315019    0.013208    0.222663
  H     -6.084296    0.785109    0.224285
  H     -5.407983   -0.611238    1.118406
  H     -5.407611   -0.607107   -0.675977

 Multiplicity           Mult            ....    1
 Number of Electrons    NEL             ....   80
 Basis Dimension        Dim             ....  401

ORBITAL ENERGIES
----------------

  NO   OCC          E(Eh)            E(eV)
   0   2.0000     -18.918978      -514.8116
   1   2.0000     -18.873612      -513.5771
   2   2.0000     -10.074096      -274.1301
   3   2.0000     -10.053545      -273.5709
   4   2.0000     -10.037177      -273.1255
   5   2.0000     -10.003086      -272.1978
   6   2.0000      -9.998474      -272.0723
   7   2.0000      -9.997954      -272.0582
   8   2.0000      -9.994280      -271.9582
   9   2.0000      -9.994034      -271.9515
  10   2.0000      -9.986230      -271.7391
  11   2.0000      -0.997780       -27.1510
  12   2.0000      -0.968940       -26.3662
  13   2.0000      -0.802443       -21.8356
  14   2.0000      -0.718552       -19.5528
  15   2.0000      -0.706945       -19.2370
  16   2.0000      -0.676852       -18.4181
  17   2.0000      -0.645805       -17.5732
  18   2.0000      -0.582368       -15.8470
  19   2.0000      -0.557013       -15.1571
  20   2.0000      -0.509217       -13.8565
  21   2.0000      -0.473671       -12.8892
  22   2.0000      -0.446178       -12.1411
  23   2.0000      -0.442748       -12.0478
  24   2.0000      -0.424470       -11.5504
  25   2.0000      -0.419795       -11.4232
  26   2.0000      -0.403130       -10.9697
  27   2.0000      -0.394996       -10.7484
  28   2.0000      -0.388286       -10.5658
  29   2.0000      -0.369843       -10.0639
  30   2.0000      -0.352977        -9.6050
  31   2.0000      -0.351808        -9.5732
  32   2.0000      -0.333295        -9.0694
  33   2.0000      -0.330015        -8.9802
  34   2.0000      -0.325948        -8.8695
  35   2.0000      -0.295263        -8.0345
  36   2.0000      -0.292269        -7.9530
  37   2.0000      -0.240481        -6.5438
  38   2.0000      -0.217460        -5.9174
  39   2.0000      -0.206976        -5.6321
  40   0.0000      -0.090881        -2.4730
  41   0.0000      -0.035955        -0.9784
  42   0.0000       0.005398         0.1469
  43   0.0000       0.036005         0.9798
  44   0.0000       0.045934         1.2499

MULLIKEN ATOMIC CHARGES
-----------------------
   0 C :    0.342820
   1 C :   -0.240522
   2 C :   -0.158108
   3 C :   -0.208279
   4 C :    0.142267
   5 C :   -0.302459
   6 H :    0.110596
   7 H :    0.146678
   8 H :    0.134502
   9 H :    0.141312
  10 C :    0.206594
  11 C :   -0.353095
  12 H :    0.150808
  13 H :    0.136095
  14 H :    0.150809
  15 O :   -0.360791
  16 O :   -0.251784
  17 C :   -0.230445
  18 H :    0.155776
  19 H :    0.143614
  20 H :    0.143613
Sum of atomic charges:   -0.0000000

LOEWDIN ATOMIC CHARGES
----------------------
   0 C :   -0.251519
   1 C :   -0.120250
   2 C :   -0.134669
   3 C :   -0.111950
   4 C :   -0.132499
   5 C :   -0.063452
   6 H :    0.156108
   7 H :    0.155320
   8 H :    0.150890
   9 H :    0.153715
  10 C :   -0.300369
  11 C :   -0.256766
  12 H :    0.141754
  13 H :    0.129609
  14 H :    0.141902
  15 O :    0.078966
  16 O :    0.225262
  17 C :   -0.306306
  18 H :    0.118042
  19 H :    0.113105
  20 H :    0.113108

  Mayer bond orders larger than 0.100000
B(  0-C ,  1-C ) :   1.2634 B(  0-C ,  5-C ) :   1.3218 B(  0-C , 16-O ) :   1.1488
B(  1-C ,  2-C ) :   1.3728 B(  1-C ,  7-H ) :   0.9569 B(  2-C ,  3-C ) :   1.4412
B(  2-C ,  8-H ) :   0.9681 B(  3-C ,  4-C ) :   1.2738 B(  3-C ,  9-H ) :   0.9661
B(  4-C ,  5-C ) :   1.3406 B(  4-C , 10-C ) :   0.9896 B(  4-C , 15-O ) :  -0.1159
B(  5-C ,  6-H ) :   1.0096 B( 10-C , 11-C ) :   1.0572 B( 10-C , 15-O ) :   2.0082
B( 11-C , 12-H ) :   0.9325 B( 11-C , 13-H ) :   0.9555 B( 11-C , 14-H ) :   0.9322
B( 16-O , 17-C ) :   0.9363 B( 17-C , 18-H ) :   0.9621 B( 17-C , 19-H ) :   0.9570
B( 17-C , 20-H ) :   0.9570

Dispersion correction           -0.027198936
FINAL SINGLE POINT ENERGY      -499.726026997576

DIPOLE MOMENT
-------------
                                X             Y             Z
Electronic contribution:      0.61386       3.46576       0.00323
Nuclear contribution   :     -1.51471      -5.52874      -0.00574
                        -----------------------------------------
Total Dipole Moment    :     -0.90085      -2.06297      -0.00252
                        -----------------------------------------
Magnitude (a.u.)       :      2.25109
Magnitude (Debye)      :      5.72181

VIBRATIONAL FREQUENCIES
-----------------------

Scaling factor for frequencies =  1.000000000 (already applied!)

   0:         0.00 cm**-1
   1:         0.00 cm**-1
   2:         0.00 cm**-1
   3:         0.00 cm**-1
   4:         0.00 cm**-1
   5:         0.00 cm**-1
   6:        52.47 cm**-1
   7:        83.88 cm**-1
   8:       155.40 cm**-1
   9:       158.51 cm**-1
  10:       178.33 cm**-1
  11:       212.45 cm**-1
  12:       268.32 cm**-1
  13:       275.72 cm**-1
  14:       322.50 cm**-1
  15:       419.40 cm**-1
  16:       420.35 cm**-1
  17:       494.29 cm**-1
  18:       510.92 cm**-1
  19:       555.19 cm**-1
  20:       577.91 cm**-1
  21:       631.33 cm**-1
  22:       687.25 cm**-1
  23:       700.06 cm**-1
  24:       778.27 cm**-1
  25:       840.32 cm**-1
  26:       885.53 cm**-1
  27:       900.96 cm**-1
  28:       959.93 cm**-1
  29:       960.60 cm**-1
  30:       993.77 cm**-1
  31:      1025.84 cm**-1
  32:      1027.45 cm**-1
  33:      1063.84 cm**-1
  34:      1108.54 cm**-1
  35:      1149.24 cm**-1
  36:      1174.15 cm**-1
  37:      1184.31 cm**-1
  38:      1215.81 cm**-1
  39:      1264.97 cm**-1
  40:      1293.14 cm**-1
  41:      1355.47 cm**-1
  42:      1364.46 cm**-1
  43:      1441.74 cm**-1
  44:      1452.64 cm**-1
  45:      1459.43 cm**-1
  46:      1459.84 cm**-1
  47:      1479.94 cm**-1
  48:      1489.69 cm**-1
  49:      1492.32 cm**-1
  50:      1582.28 cm**-1
  51:      1601.37 cm**-1
  52:      1658.12 cm**-1
  53:      2987.83 cm**-1
  54:      3006.27 cm**-1
  55:      3050.62 cm**-1
  56:      3059.82 cm**-1
  57:      3111.58 cm**-1
  58:      3115.15 cm**-1
  59:      3142.95 cm**-1
  60:      3162.67 cm**-1
  61:      3171.60 cm**-1
  62:      3175.43 cm**-1

IR SPECTRUM
-----------

 Mode   freq       eps      Int      T**2         TX        TY        TZ
       cm**-1   L/(mol*cm) km/mol    a.u.
----------------------------------------------------------------------------
  6:     52.47   0.001474    7.45  0.008764  (-0.000077  0.000038  0.093617)
  7:     83.88   0.000575    2.90  0.002138  (-0.000099 -0.000398  0.046239)
  8:    155.40   0.000083    0.42  0.000166  (-0.000363 -0.000062 -0.012872)
  9:    158.51   0.000993    5.02  0.001956  (-0.032290 -0.030214 -0.000075)
 10:    178.33   0.000013    0.07  0.000023  (-0.000065 -0.000185  0.004815)
 11:    212.45   0.000122    0.62  0.000179  (-0.000057 -0.000215 -0.013394)
 12:    268.32   0.001500    7.58  0.001744  (-0.041028  0.007820  0.000079)
 13:    275.72   0.000177    0.90  0.000201  (-0.000183  0.000041 -0.014161)
 14:    322.50   0.000115    0.58  0.000112  ( 0.003873 -0.009829 -0.000055)
 15:    419.40   0.000139    0.70  0.000103  ( 0.000855 -0.000125 -0.010136)
 16:    420.35   0.000108    0.55  0.000080  ( 0.008152 -0.003559  0.001150)
 17:    494.29   0.000389    1.96  0.000245  (-0.005540  0.014653  0.000194)
 18:    510.92   0.001223    6.18  0.000747  (-0.000114  0.000328 -0.027325)
 19:    555.19   0.001219    6.16  0.000685  ( 0.005648  0.025563  0.000088)
 20:    577.91   0.008728   44.11  0.004713  (-0.068438 -0.005412 -0.000009)
 21:    631.33   0.000066    0.33  0.000033  (-0.000260 -0.000141 -0.005700)
 22:    687.25   0.006617   33.44  0.003005  (-0.000089 -0.000075  0.054816)
 23:    700.06   0.004202   21.24  0.001873  ( 0.042806 -0.006387  0.000193)
 24:    778.27   0.012426   62.80  0.004983  (-0.000019  0.000075 -0.070588)
 25:    840.32   0.007379   37.29  0.002740  ( 0.041807 -0.031503 -0.000129)
 26:    885.53   0.000519    2.62  0.000183  (-0.000008 -0.000030  0.013519)
 27:    900.96   0.004686   23.68  0.001623  ( 0.000112  0.000037 -0.040286)
 28:    959.93   0.021851  110.43  0.007104  (-0.080033 -0.026425  0.000037)
 29:    960.60   0.000032    0.16  0.000010  (-0.001936 -0.000487 -0.002510)
 30:    993.77   0.000296    1.50  0.000093  (-0.002300  0.009361  0.000038)
 31:   1025.84   0.000276    1.40  0.000084  ( 0.001839  0.000317 -0.008974)
 32:   1027.45   0.021951  110.93  0.006667  ( 0.079765  0.017451  0.000263)
 33:   1063.84   0.001381    6.98  0.000405  (-0.012789  0.015543  0.000023)
 34:   1108.54   0.003363   16.99  0.000947  ( 0.000010  0.030767  0.000065)
 35:   1149.24   0.000284    1.44  0.000077  ( 0.000003 -0.000028  0.008788)
 36:   1174.15   0.001926    9.73  0.000512  ( 0.012611 -0.018786 -0.000054)
 37:   1184.31   0.002239   11.31  0.000590  ( 0.024284  0.000489 -0.000024)
 38:   1215.81   0.010480   52.96  0.002690  ( 0.019926 -0.047884 -0.000143)
 39:   1264.97   0.135210  683.30  0.033356  ( 0.182460  0.008004  0.000031)
 40:   1293.14   0.005715   28.88  0.001379  (-0.035362  0.011348  0.000053)
 41:   1355.47   0.005297   26.77  0.001219  ( 0.024094  0.025278  0.000054)
 42:   1364.46   0.010692   54.03  0.002445  ( 0.044133 -0.022308 -0.000031)
 43:   1441.74   0.027006  136.48  0.005845  ( 0.075803 -0.009970 -0.000087)
 44:   1452.64   0.004774   24.13  0.001026  ( 0.005548  0.031534  0.000665)
 45:   1459.43   0.002778   14.04  0.000594  (-0.000741 -0.001374  0.024321)
 46:   1459.84   0.007180   36.28  0.001535  ( 0.032646  0.021650  0.000603)
 47:   1479.94   0.002224   11.24  0.000469  (-0.000030  0.000092 -0.021653)
 48:   1489.69   0.001209    6.11  0.000253  (-0.013183  0.008916  0.000061)
 49:   1492.32   0.012366   62.49  0.002586  ( 0.043546 -0.026261 -0.000061)
 50:   1582.28   0.024093  121.76  0.004752  ( 0.047770 -0.049697 -0.000111)
 51:   1601.37   0.013587   68.66  0.002648  (-0.005256  0.051187  0.000071)
 52:   1658.12   0.064277  324.83  0.012097  ( 0.032187  0.105172  0.000059)
 53:   2987.83   0.010913   55.15  0.001140  (-0.031215 -0.012863 -0.000051)
 54:   3006.27   0.000213    1.07  0.000022  ( 0.000474  0.004674  0.000039)
 55:   3050.62   0.008643   43.68  0.000884  (-0.000004 -0.000060  0.029735)
 56:   3059.82   0.000964    4.87  0.000098  (-0.000097  0.000053 -0.009917)
 57:   3111.58   0.005846   29.54  0.000586  ( 0.019875  0.013830  0.000028)
 58:   3115.15   0.004877   24.64  0.000489  (-0.015488  0.015769  0.000034)
 59:   3142.95   0.002895   14.63  0.000287  (-0.000733  0.016938  0.000040)
 60:   3162.67   0.001403    7.09  0.000138  ( 0.011489 -0.002532 -0.000013)
 61:   3171.60   0.001929    9.75  0.000190  (-0.012785  0.005135  0.000008)
 62:   3175.43   0.001274    6.44  0.000125  ( 0.001780  0.011047  0.000027)

--------------------------
THERMOCHEMISTRY AT 298.15K
--------------------------

Temperature         ... 298.15 K
Pressure            ... 1.00 atm
Total Mass          ... 150.18 AMU

Throughout the following assumptions are being made:
  (1) The electronic state is orbitally nondegenerate
  (2) There are no thermally accessible electronically excited states
  (3) Hindered rotations indicated by low frequency modes are not
      treated as such but are treated as vibrations and this may
      cause some error
  (4) All equations used are the standard statistical mechanics
      equations for an ideal gas
  (5) All vibrations are strictly harmonic

freq.      52.47  E(vib)   ...       0.52
freq.      83.88  E(vib)   ...       0.48
freq.     155.40  E(vib)   ...       0.40
freq.     158.51  E(vib)   ...       0.39
freq.     178.33  E(vib)   ...       0.37
freq.     212.45  E(vib)   ...       0.34
freq.     268.32  E(vib)   ...       0.29
freq.     275.72  E(vib)   ...       0.28
freq.     322.50  E(vib)   ...       0.25
freq.     419.40  E(vib)   ...       0.18
freq.     420.35  E(vib)   ...       0.18
freq.     494.29  E(vib)   ...       0.14
freq.     510.92  E(vib)   ...       0.14
freq.     555.19  E(vib)   ...       0.12
freq.     577.91  E(vib)   ...       0.11
freq.     631.33  E(vib)   ...       0.09
freq.     687.25  E(vib)   ...       0.07
freq.     700.06  E(vib)   ...       0.07
freq.     778.27  E(vib)   ...       0.05
freq.     840.32  E(vib)   ...       0.04
freq.     885.53  E(vib)   ...       0.04
freq.     900.96  E(vib)   ...       0.03
freq.     959.93  E(vib)   ...       0.03
freq.     960.60  E(vib)   ...       0.03
freq.     993.77  E(vib)   ...       0.02
freq.    1025.84  E(vib)   ...       0.02
freq.    1027.45  E(vib)   ...       0.02
freq.    1063.84  E(vib)   ...       0.02
freq.    1108.54  E(vib)   ...       0.02
freq.    1149.24  E(vib)   ...       0.01
freq.    1174.15  E(vib)   ...       0.01
freq.    1184.31  E(vib)   ...       0.01
freq.    1215.81  E(vib)   ...       0.01
freq.    1264.97  E(vib)   ...       0.01
freq.    1293.14  E(vib)   ...       0.01
freq.    1355.47  E(vib)   ...       0.01
freq.    1364.46  E(vib)   ...       0.01
freq.    1441.74  E(vib)   ...       0.00
freq.    1452.64  E(vib)   ...       0.00
freq.    1459.43  E(vib)   ...       0.00
freq.    1459.84  E(vib)   ...       0.00
freq.    1479.94  E(vib)   ...       0.00
freq.    1489.69  E(vib)   ...       0.00
freq.    1492.32  E(vib)   ...       0.00
freq.    1582.28  E(vib)   ...       0.00
freq.    1601.37  E(vib)   ...       0.00
freq.    1658.12  E(vib)   ...       0.00
freq.    2987.83  E(vib)   ...       0.00
freq.    3006.27  E(vib)   ...       0.00
freq.    3050.62  E(vib)   ...       0.00
freq.    3059.82  E(vib)   ...       0.00
freq.    3111.58  E(vib)   ...       0.00
freq.    3115.15  E(vib)   ...       0.00
freq.    3142.95  E(vib)   ...       0.00
freq.    3162.67  E(vib)   ...       0.00
freq.    3171.60  E(vib)   ...       0.00
freq.    3175.43  E(vib)   ...       0.00

------------
INNER ENERGY
------------

The inner energy is: U= E(el) + E(ZPE) + E(vib) + E(rot) + E(trans)
    E(el)   - is the total energy from the electronic structure calculation
              = E(kin-el) + E(nuc-el) + E(el-el) + E(nuc-nuc)
    E(ZPE)  - the the zero temperature vibrational energy from the frequency calculation
    E(vib)  - the the finite temperature correction to E(ZPE) due to population
              of excited vibrational states
    E(rot)  - is the rotational thermal energy
    E(trans)- is the translational thermal energy

Summary of contributions to the inner energy U:
Electronic energy                ...   -499.72602700 Eh
Zero point energy                ...      0.16710860 Eh     104.86 kcal/mol
Thermal vibrational correction   ...      0.00772902 Eh       4.85 kcal/mol
Thermal rotational correction    ...      0.00141627 Eh       0.89 kcal/mol
Thermal translational correction ...      0.00141627 Eh       0.89 kcal/mol
-----------------------------------------------------------------------
Total thermal energy                   -499.54835683 Eh

Summary of corrections to the electronic energy:
(perhaps to be used in another calculation)
Total thermal correction                  0.01056157 Eh       6.63 kcal/mol
Non-thermal (ZPE) correction              0.16710860 Eh     104.86 kcal/mol
-----------------------------------------------------------------------
Total correction                          0.17767017 Eh     111.49 kcal/mol

--------
ENTHALPY
--------

The enthalpy is H = U + kB*T
                kB is Boltzmann's constant
Total free energy                 ...   -499.54835683 Eh
Thermal Enthalpy correction       ...      0.00094421 Eh       0.59 kcal/mol
-----------------------------------------------------------------------
Total Enthalpy                    ...   -499.54741262 Eh

Note: Only C1 symmetry has been detected, increase convergence thresholds
      if your molecule has a higher symmetry. Symmetry factor of 1.0 is
      used for the rotational entropy correction.

Note: Rotational entropy computed according to Herzberg
Infrared and Raman Spectra, Chapter V,1, Van Nostrand Reinhold, 1945
Point Group:  C1, Symmetry Number:   1
Rotational constants in cm-1:     0.081931     0.021842     0.017358

Vibrational entropy computed according to the QRRHO of S. Grimme
Chem.Eur.J. 2012 18 9955

-------
ENTROPY
-------

The entropy contributions are T*S = T*(S(el)+S(vib)+S(rot)+S(trans))
     S(el)   - electronic entropy
     S(vib)  - vibrational entropy
     S(rot)  - rotational entropy
     S(trans)- translational entropy
The entropies will be listed as multiplied by the temperature to get
units of energy

Electronic entropy                ...      0.00000000 Eh      0.00 kcal/mol
Vibrational entropy               ...      0.01315340 Eh      8.25 kcal/mol
Rotational entropy                ...      0.01441087 Eh      9.04 kcal/mol
Translational entropy             ...      0.01944716 Eh     12.20 kcal/mol
-----------------------------------------------------------------------
Final entropy term                ...      0.04701143 Eh     29.50 kcal/mol

In case the symmetry of your molecule has not been determined correctly
or in case you have a reason to use a different symmetry number we print
out the resulting rotational entropy values for sn=1,12 :
 --------------------------------------------------------
|  sn= 1 | S(rot)=       0.01441087 Eh      9.04 kcal/mol|
|  sn= 2 | S(rot)=       0.01375641 Eh      8.63 kcal/mol|
|  sn= 3 | S(rot)=       0.01337358 Eh      8.39 kcal/mol|
|  sn= 4 | S(rot)=       0.01310195 Eh      8.22 kcal/mol|
|  sn= 5 | S(rot)=       0.01289126 Eh      8.09 kcal/mol|
|  sn= 6 | S(rot)=       0.01271912 Eh      7.98 kcal/mol|

                             ****ORCA TERMINATED NORMALLY****
TOTAL RUN TIME: 0 days 1 hours 8 minutes 54 seconds 497 msec
