                         Program Version 5.0.2 -  RELEASE  -
|  1> ! PW6B95 D3BJ def2-QZVP RIJK def2/JK tightSCF CPCM(THF)
|  2> ! sp Pal8
|  3>
|  4> * xyz 0 1
|  5>   C   -2.91741648202514     -0.02207755909859      0.22265734393334
|  6>   C   -2.89024359220543     -1.42500350810635      0.21933766938301
|  7>   C   -1.66034670202848     -2.08815798452899      0.21775633926632
|  8>   C   -0.46334058290646     -1.37899717493847      0.21950619299391
|  9>   C   -0.49204326584477      0.02681234829573      0.22267765457607
| 10>   C   -1.71923122220484      0.69656733220044      0.22419908539254
| 11>   H   -1.73961233084943      1.78170436352450      0.22660543946004
| 12>   H   -3.80886633260969     -2.00037381237156      0.21801488135760
| 13>   H   -1.64704118063816     -3.17434982187938      0.21512507493098
| 14>   H   0.48004015313614     -1.91337559173750      0.21824390122492
| 15>   C   0.76193884857716      0.84147861431899      0.22406844453157
| 16>   C   2.09301154377869      0.12199751793509      0.22487534604521
| 17>   H   2.17890634251188     -0.52577040354340      1.10472595287842
| 18>   H   2.89909273208696      0.85670043728345      0.22893862860311
| 19>   H   2.18236726266623     -0.51913601982552     -0.65957561740872
| 20>   O   0.71299455448547      2.07146876756818      0.22439946034616
| 21>   O   -4.06359821074471      0.72369177071205      0.22454230849426
| 22>   C   -5.31501868203692      0.01320755047731      0.22266306732057
| 23>   H   -6.08429619904572      0.78510896357555      0.22428498840532
| 24>   H   -5.40798268087456     -0.61123827412413      1.11840554015127
| 25>   H   -5.40761106422821     -0.60710748433739     -0.67597720348589
| 26> *
| 27>
| 28>                          ****END OF INPUT****

CARTESIAN COORDINATES (ANGSTROEM)
---------------------------------
  C     -2.917416   -0.022078    0.222657
  C     -2.890244   -1.425004    0.219338
  C     -1.660347   -2.088158    0.217756
  C     -0.463341   -1.378997    0.219506
  C     -0.492043    0.026812    0.222678
  C     -1.719231    0.696567    0.224199
  H     -1.739612    1.781704    0.226605
  H     -3.808866   -2.000374    0.218015
  H     -1.647041   -3.174350    0.215125
  H      0.480040   -1.913376    0.218244
  C      0.761939    0.841479    0.224068
  C      2.093012    0.121998    0.224875
  H      2.178906   -0.525770    1.104726
  H      2.899093    0.856700    0.228939
  H      2.182367   -0.519136   -0.659576
  O      0.712995    2.071469    0.224399
  O     -4.063598    0.723692    0.224542
  C     -5.315019    0.013208    0.222663
  H     -6.084296    0.785109    0.224285
  H     -5.407983   -0.611238    1.118406
  H     -5.407611   -0.607107   -0.675977

 Total Charge           Charge          ....    0
 Multiplicity           Mult            ....    1
 Number of Electrons    NEL             ....   80
 Basis Dimension        Dim             ....  927

ORBITAL ENERGIES
----------------

  NO   OCC          E(Eh)            E(eV)
   0   2.0000     -19.332245      -526.0571
   1   2.0000     -19.290299      -524.9157
   2   2.0000     -10.396054      -282.8910
   3   2.0000     -10.370939      -282.2076
   4   2.0000     -10.345948      -281.5276
   5   2.0000     -10.319259      -280.8013
   6   2.0000     -10.312147      -280.6078
   7   2.0000     -10.311547      -280.5915
   8   2.0000     -10.308476      -280.5079
   9   2.0000     -10.307827      -280.4902
  10   2.0000     -10.295693      -280.1600
  11   2.0000      -1.097883       -29.8749
  12   2.0000      -1.073185       -29.2029
  13   2.0000      -0.890931       -24.2435
  14   2.0000      -0.801670       -21.8145
  15   2.0000      -0.788337       -21.4517
  16   2.0000      -0.755996       -20.5717
  17   2.0000      -0.721696       -19.6383
  18   2.0000      -0.655676       -17.8419
  19   2.0000      -0.628860       -17.1121
  20   2.0000      -0.576747       -15.6941
  21   2.0000      -0.540815       -14.7163
  22   2.0000      -0.510010       -13.8781
  23   2.0000      -0.508109       -13.8263
  24   2.0000      -0.489532       -13.3208
  25   2.0000      -0.485420       -13.2089
  26   2.0000      -0.462989       -12.5986
  27   2.0000      -0.458329       -12.4718
  28   2.0000      -0.449366       -12.2279
  29   2.0000      -0.431079       -11.7302
  30   2.0000      -0.409485       -11.1427
  31   2.0000      -0.406998       -11.0750
  32   2.0000      -0.391385       -10.6501
  33   2.0000      -0.387491       -10.5442
  34   2.0000      -0.381792       -10.3891
  35   2.0000      -0.353967        -9.6319
  36   2.0000      -0.347905        -9.4670
  37   2.0000      -0.282736        -7.6936
  38   2.0000      -0.281674        -7.6648
  39   2.0000      -0.250434        -6.8147
  40   0.0000      -0.062852        -1.7103
  41   0.0000      -0.008427        -0.2293
  42   0.0000       0.027290         0.7426
  43   0.0000       0.036533         0.9941
  44   0.0000       0.039325         1.0701

MULLIKEN ATOMIC CHARGES
-----------------------
   0 C :    0.102290
   1 C :   -0.072710
   2 C :   -0.200413
   3 C :   -0.082334
   4 C :   -0.007944
   5 C :   -0.030303
   6 H :    0.116096
   7 H :    0.123245
   8 H :    0.132392
   9 H :    0.121210
  10 C :    0.228388
  11 C :   -0.263219
  12 H :    0.116914
  13 H :    0.113519
  14 H :    0.117241
  15 O :   -0.415695
  16 O :   -0.367485
  17 C :   -0.080193
  18 H :    0.131999
  19 H :    0.108496
  20 H :    0.108507
Sum of atomic charges:   -0.0000000

LOEWDIN ATOMIC CHARGES
----------------------
   0 C :   -0.345138
   1 C :    0.075050
   2 C :    0.068582
   3 C :    0.078160
   4 C :   -0.113782
   5 C :    0.100956
   6 H :   -0.046365
   7 H :   -0.054759
   8 H :   -0.050515
   9 H :   -0.050942
  10 C :   -0.452689
  11 C :    0.237492
  12 H :   -0.040390
  13 H :   -0.051576
  14 H :   -0.040261
  15 O :    0.300474
  16 O :    0.496912
  17 C :    0.074487
  18 H :   -0.062908
  19 H :   -0.061394
  20 H :   -0.061394

  Mayer bond orders larger than 0.100000
B(  0-C ,  1-C ) :   1.3223 B(  0-C ,  5-C ) :   1.3198 B(  0-C , 16-O ) :   1.1245
B(  1-C ,  2-C ) :   1.3583 B(  1-C ,  7-H ) :   0.9518 B(  2-C ,  3-C ) :   1.4145
B(  2-C ,  8-H ) :   0.9518 B(  3-C ,  4-C ) :   1.2833 B(  3-C ,  9-H ) :   0.9490
B(  4-C ,  5-C ) :   1.3050 B(  4-C , 10-C ) :   0.9927 B(  5-C ,  6-H ) :   0.9401
B( 10-C , 11-C ) :   1.0149 B( 10-C , 15-O ) :   1.9290 B( 11-C , 12-H ) :   0.9389
B( 11-C , 13-H ) :   0.9657 B( 11-C , 14-H ) :   0.9388 B( 16-O , 17-C ) :   0.8974
B( 17-C , 18-H ) :   0.9684 B( 17-C , 19-H ) :   0.9612 B( 17-C , 20-H ) :   0.9612

Dispersion correction           -0.010798890
FINAL SINGLE POINT ENERGY      -500.281480872346

DIPOLE MOMENT
-------------
                                X             Y             Z
Electronic contribution:      0.69052       3.35471       0.00314
Nuclear contribution   :     -1.51471      -5.52874      -0.00574
                        -----------------------------------------
Total Dipole Moment    :     -0.82419      -2.17402      -0.00261
                        -----------------------------------------
Magnitude (a.u.)       :      2.32501
Magnitude (Debye)      :      5.90970

Rotational constants in cm-1:     0.081931     0.021842     0.017358
Rotational constants in MHz :  2456.225581   654.811893   520.385172

                             ****ORCA TERMINATED NORMALLY****
TOTAL RUN TIME: 0 days 0 hours 5 minutes 55 seconds 611 msec
