   * xtb version 6.4.1 (afa7bdf) compiled by 'ehlert@majestix' on 2021-06-10
          program call               : xtb DiPA-H.xyz --opt --alpb thf
          number of atoms            :                    23
          number of electrons        :                    45
          charge                     :                     0

   ID    Z sym.   atoms
    1    7 N      1
    2    6 C      2, 4-6, 8, 9
    3    1 H      3, 7, 10-23

        Solvent                        thf
        Solvent mass                       7.2106E+01 g/mol
          :  Hamiltonian                  GFN2-xTB          :
 * total energy  :   -23.6779719 Eh     change       -0.1113065E-10 Eh
 * total energy  :   -23.7520729 Eh     change       -0.7410096E-01 Eh
 * total energy  :   -23.7778302 Eh     change       -0.2575733E-01 Eh
 * total energy  :   -23.7897147 Eh     change       -0.1188454E-01 Eh
 * total energy  :   -23.7955093 Eh     change       -0.5794532E-02 Eh
 * total energy  :   -23.7992165 Eh     change       -0.3707197E-02 Eh
 * total energy  :   -23.8016645 Eh     change       -0.2448063E-02 Eh
 * total energy  :   -23.8033766 Eh     change       -0.1712100E-02 Eh
 * total energy  :   -23.8061813 Eh     change       -0.2804643E-02 Eh
 * total energy  :   -23.8120224 Eh     change       -0.5841113E-02 Eh
 * total energy  :   -23.8468099 Eh     change       -0.1947222E-03 Eh
 * total energy  :   -23.8469349 Eh     change       -0.1250008E-03 Eh
 * total energy  :   -23.8469844 Eh     change       -0.4952593E-04 Eh
 * total energy  :   -23.8470196 Eh     change       -0.3518341E-04 Eh
 * total energy  :   -23.8470501 Eh     change       -0.3042993E-04 Eh
 * total energy  :   -23.8470708 Eh     change       -0.2069272E-04 Eh
 * total energy  :   -23.8470976 Eh     change       -0.2681004E-04 Eh
 * total energy  :   -23.8471049 Eh     change       -0.7372620E-05 Eh
 * total energy  :   -23.8471097 Eh     change       -0.4773425E-05 Eh
   *** GEOMETRY OPTIMIZATION CONVERGED AFTER 60 ITERATIONS ***

 final structure:
================
23
 xtb: 6.4.1 (afa7bdf)
N         3.39558839056577   -2.81595082987487    1.21081125289961
C         4.39731618762424   -2.07431176200779    1.96431473094922
H         2.96713122477250   -3.52369353067804    1.79628550717886
C        -1.36193761969813   -1.38831558525450   -2.24534413367528
C        -0.88277367036342   -0.09026991171954   -2.76606232137923
C        -2.51947436506363   -1.49185028164788   -1.33117445212941
H        -0.97711384730052   -2.29278530691218   -2.68678923988957
C         3.84057345468897   -1.39465603049391    3.22372494593279
C         5.04567538901971   -1.04499296903548    1.04078232985369
H         5.15962617972844   -2.80416792200268    2.26843353299359
H         3.08924973351773   -0.65396565602259    2.95201043916874
H         4.63742192764489   -0.89449963836145    3.76894861125453
H         3.38038795093657   -2.12879561250383    3.88392603124187
H         4.32310199073324   -0.28121321864959    0.75980919128675
H         5.40049231077246   -1.53411745290281    0.13808959145188
H         5.88489097509703   -0.56494321191878    1.53755821236037
H        -1.07220934282083    0.71068753746261   -2.05242492114790
H        -1.38947261649271    0.18222002300359   -3.70214457200228
H         0.18409013858115   -0.12799936009975   -2.98622440144066
H        -2.66732829541172   -0.56381698558990   -0.78125497041350
H        -2.38477437854375   -2.30953511837299   -0.62101364655028
H        -3.44874875875889   -1.70405134952767   -1.87737250760673
H         2.66211750455715   -2.18808622406952    0.89940102516678

          :  Hamiltonian                  GFN2-xTB          :
         :: total energy             -23.847109711357 Eh    ::
         :: gradient norm              0.000796936676 Eh/a0 ::
         :: HOMO-LUMO gap              9.301532517126 eV    ::
         :: SCC energy               -24.195606153250 Eh    ::
         :: -> dispersion             -0.009427120274 Eh    ::
         :: -> Gsolv                  -0.016715706093 Eh    ::
         :: repulsion energy           0.348433687044 Eh    ::

    * Orbital Energies and Occupations

         #    Occupation            Energy/Eh            Energy/eV
      -------------------------------------------------------------
         1        2.0000           -0.6255999             -17.0234
       ...           ...                  ...                  ...
        11        2.0000           -0.4855991             -13.2138
        12        2.0000           -0.4813555             -13.0983
        13        2.0000           -0.4702736             -12.7968
        14        2.0000           -0.4689533             -12.7609
        15        2.0000           -0.4585376             -12.4774
        16        2.0000           -0.4580090             -12.4631
        17        2.0000           -0.4449502             -12.1077
        18        2.0000           -0.4374819             -11.9045
        19        2.0000           -0.4357686             -11.8579
        20        2.0000           -0.4276451             -11.6368
        21        2.0000           -0.4238224             -11.5328
        22        2.0000           -0.3570967              -9.7171
        23        1.0000           -0.2821909              -7.6788 (HOMO)
        24                          0.0596341               1.6227 (LUMO)
        25                          0.1044869               2.8432
        26                          0.1168273               3.1790
        27                          0.1209044               3.2900
        28                          0.1353810               3.6839
        29                          0.1533060               4.1717
        30                          0.1647956               4.4843
        31                          0.1828542               4.9757
        32                          0.1889453               5.1415
        33                          0.1907910               5.1917
        34                          0.2010287               5.4703
       ...                                ...                  ...
        44                          0.3661554               9.9636
      -------------------------------------------------------------
                  HL-Gap            0.3418250 Eh            9.3015 eV

     #   Z          covCN         q      C6AA      α(0)
     1   7 N        2.632    -0.376    29.719     8.096
     2   6 C        3.779     0.062    19.555     6.300
     3   1 H        0.860     0.150     1.402     1.855
     4   6 C        2.882    -0.074    29.854     8.958
     5   6 C        3.751    -0.104    22.554     6.773
     6   6 C        3.751    -0.104    22.553     6.772
     7   1 H        0.926     0.014     2.832     2.631
     8   6 C        3.752    -0.118    22.812     6.811
     9   6 C        3.756    -0.119    22.835     6.813
    10   1 H        0.923     0.022     2.696     2.568
    11   1 H        0.925     0.034     2.537     2.491
    12   1 H        0.925     0.035     2.523     2.484
    13   1 H        0.925     0.029     2.595     2.519
    14   1 H        0.925     0.039     2.459     2.452
    15   1 H        0.925     0.050     2.315     2.379
    16   1 H        0.925     0.038     2.472     2.459
    17   1 H        0.925     0.042     2.420     2.433
    18   1 H        0.923     0.050     2.320     2.382
    19   1 H        0.925     0.043     2.407     2.426
    20   1 H        0.925     0.042     2.429     2.437
    21   1 H        0.924     0.043     2.403     2.424
    22   1 H        0.923     0.049     2.334     2.389
    23   1 H        0.860     0.153     1.383     1.842

Wiberg/Mayer (AO) data.
largest (>0.10) Wiberg bond orders for each atom

     #   Z sym  total        # sym  WBO       # sym  WBO       # sym  WBO
 ---------------------------------------------------------------------------
     1   7 N    2.999 --     2 C    1.017     3 H    0.963    23 H    0.962
     2   6 C    3.986 --     1 N    1.017     9 C    1.006     8 C    0.995
                            10 H    0.967
     3   1 H    0.978 --     1 N    0.963
     4   6 C    3.144 --     5 C    1.080     6 C    1.079     7 H    0.976
     5   6 C    3.988 --     4 C    1.080    17 H    0.978    19 H    0.973
                            18 H    0.939
     6   6 C    3.988 --     4 C    1.079    20 H    0.981    21 H    0.968
                            22 H    0.941
     7   1 H    0.999 --     4 C    0.976
     8   6 C    3.996 --     2 C    0.995    13 H    0.987    11 H    0.987
                            12 H    0.986
     9   6 C    3.996 --     2 C    1.006    16 H    0.987    14 H    0.986
                            15 H    0.986
    10   1 H    0.999 --     2 C    0.967
    11   1 H    0.999 --     8 C    0.987
    12   1 H    0.999 --     8 C    0.986
    13   1 H    0.999 --     8 C    0.987
    14   1 H    0.998 --     9 C    0.986
    15   1 H    0.997 --     9 C    0.986
    16   1 H    0.999 --     9 C    0.987
    17   1 H    0.990 --     5 C    0.978
    18   1 H    0.945 --     5 C    0.939
    19   1 H    0.984 --     5 C    0.973
    20   1 H    0.994 --     6 C    0.981
    21   1 H    0.979 --     6 C    0.968
    22   1 H    0.947 --     6 C    0.941
    23   1 H    0.977 --     1 N    0.962
 ---------------------------------------------------------------------------

molecular dipole:
                 x           y           z       tot (Debye)
 q only:       -0.199       0.248       0.125
   full:       -0.444       0.385       0.379       1.778

           -------------------------------------------------
          | TOTAL ENERGY              -23.847109711357 Eh   |
          | GRADIENT NORM               0.000796936676 Eh/α |
          | HOMO-LUMO GAP               9.301532517126 eV   |
           -------------------------------------------------

 * finished run on 2022/02/24 at 18:52:10.028
