                         Program Version 5.0.2 -  RELEASE  -
|  1> ! TPSS D3BJ def2-TZVP RI def2/J CPCM(THF)
|  2> ! Opt numfreq Pal4
|  3>
|  4> * xyz 0 1
|  5> C        -2.56950946745473    2.30847948692777    0.09650459902578
|  6> C        -2.75432902054190    1.02802744745973    0.61222848588927
|  7> C        -1.67166046420603    0.16827239399531    0.72446229644111
|  8> C        -0.40370599515443    0.55546816308320    0.33982429061819
|  9> C        -0.20451800887304    1.83871852984074   -0.17736338729944
| 10> C        -1.29100028268401    2.69996111307643   -0.29535332699296
| 11> O        -3.54852378102489    3.23525515305943   -0.06469544161984
| 12> C        -4.86951830253424    2.90783979001898    0.32066987120590
| 13> H        -5.24978720491233    2.05408770446962   -0.24714764458150
| 14> H        -5.46330135395595    3.79023372324971    0.09018733058592
| 15> H        -4.92920589707969    2.69698315512801    1.39226971155921
| 16> C         1.11413018450754    2.33945447477920   -0.62586977303482
| 17> H        -1.14462123635616    3.69116617273048   -0.69593252185428
| 18> H        -3.72880838186813    0.69025087542871    0.92582801933915
| 19> H        -1.82996935829163   -0.82283516647191    1.12174487804491
| 20> H         0.41432462853031   -0.13837739495433    0.43474572070878
| 21> O         1.23120101032430    3.42698554718701   -1.16411502341866
| 22> C         2.31399716267631    1.44499400603729   -0.40282278567365
| 23> C         3.63768627971091    2.15957054348869   -0.75686052045143
| 24> O         3.70146979141442    2.48062687490819   -2.12562529503986
| 25> C         4.79441433909253    1.25838309638769   -0.39601079230870
| 26> H         3.69914493521348    3.08050954296375   -0.15322835951867
| 27> C         5.36054500004861    0.42422672829210   -1.35282844230504
| 28> H         2.98405703709486    3.10513824491430   -2.31022653894744
| 29> C         5.28421452645337    1.23446320654529    0.90626020328051
| 30> C         6.40207507380045   -0.42057312480704   -1.02195453763818
| 31> C         6.88957460846634   -0.44580194122561    0.28333891268444
| 32> C         6.32221343196811    0.39081176409256    1.24487846718056
| 33> H         4.85498400391268    1.88549781036143    1.65367293041343
| 34> H         4.98428718745631    0.46038854945292   -2.36281945872107
| 35> H         6.84278024547489   -1.06256676453447   -1.76777144640562
| 36> H         6.71474488124501    0.36515394591104    2.25041894296492
| 37> C         8.00137991107241   -1.33257446610321    0.68567569310060
| 38> O         8.41667086613494   -2.13099428500058   -0.30435142820526
| 39> C         9.48419208380083   -3.02605371568155   -0.00254582250919
| 40> H         9.21938759185036   -3.65415823194956    0.85078393477810
| 41> H        10.38958686205388   -2.46507759999059    0.23876964175513
| 42> H         9.62782230852433   -3.62657070253715   -0.89680167848015
| 43> O         8.49437202818048   -1.35313449066876    1.79543563495385
| 44> H         2.21032856015990    0.56454017144004   -1.04148017050655
| 45> H         2.34328990606947    1.11863670829497    0.63655479188183
| 46> *
| 47>
| 48>                          ****END OF INPUT****
 Total Charge           Charge          ....    0
 Multiplicity           Mult            ....    1
 Number of Electrons    NEL             ....  166
Dispersion correction           -0.061330385
FINAL SINGLE POINT ENERGY     -1073.533437837214
Dispersion correction            ... done
Dispersion correction           -0.061063231
FINAL SINGLE POINT ENERGY     -1073.536673820343
Dispersion correction            ... done
Dispersion correction           -0.061017502
FINAL SINGLE POINT ENERGY     -1073.537227878868
Dispersion correction            ... done
FINAL SINGLE POINT ENERGY     -1073.537260193717
FINAL SINGLE POINT ENERGY     -1073.537446608918
FINAL SINGLE POINT ENERGY     -1073.537458262991
FINAL SINGLE POINT ENERGY     -1073.537476152383
FINAL SINGLE POINT ENERGY     -1073.537482053905
Dispersion correction            ... done
Dispersion correction           -0.061061917
FINAL SINGLE POINT ENERGY     -1073.537488033659
Dispersion correction            ... done
Dispersion correction           -0.061062196
FINAL SINGLE POINT ENERGY     -1073.537489469875
Dispersion correction            ... done
                    ***********************HURRAY********************

CARTESIAN COORDINATES (ANGSTROEM)
---------------------------------
  C     -2.599549    2.345368    0.056071
  C     -2.776187    1.110919    0.700176
  C     -1.676447    0.270715    0.893458
  C     -0.407024    0.640517    0.462544
  C     -0.231878    1.876507   -0.185941
  C     -1.329072    2.720474   -0.387880
  O     -3.604678    3.239287   -0.180458
  C     -4.927197    2.881168    0.261661
  H     -5.267463    1.966648   -0.236681
  H     -5.562272    3.719907   -0.022197
  H     -4.948342    2.744865    1.348622
  C      1.098704    2.320096   -0.683801
  H     -1.192261    3.672556   -0.890331
  H     -3.753966    0.800179    1.050236
  H     -1.823016   -0.683603    1.390834
  H      0.432462   -0.026566    0.621865
  O      1.216054    3.374449   -1.317733
  C      2.311382    1.447496   -0.406513
  C      3.641267    2.152466   -0.731483
  O      3.703267    2.518470   -2.115957
  C      4.802805    1.244820   -0.401272
  H      3.711355    3.055537   -0.106829
  C      5.425460    0.473643   -1.388998
  H      2.906893    3.074905   -2.243183
  C      5.240691    1.137577    0.925783
  C      6.464985   -0.392002   -1.058480
  C      6.896268   -0.501608    0.271005
  C      6.274499    0.272480    1.261768
  H      4.769453    1.741459    1.697627
  H      5.094310    0.560357   -2.418231
  H      6.943459   -0.984154   -1.830769
  H      6.617398    0.190355    2.288242
  C      7.998897   -1.409157    0.676483
  O      8.514719   -2.097461   -0.368177
  C      9.599968   -3.003265   -0.036545
  H      9.250904   -3.758408    0.671175
  H     10.431694   -2.443725    0.397008
  H      9.886400   -3.458194   -0.983603
  O      8.409698   -1.536044    1.822163
  H      2.226724    0.531153   -1.006929
  H      2.304050    1.135221    0.643722

 Multiplicity           Mult            ....    1
 Number of Electrons    NEL             ....  166
 Basis Dimension        Dim             ....  821

ORBITAL ENERGIES
----------------

  NO   OCC          E(Eh)            E(eV)
   0   2.0000     -18.929609      -515.1008
   1   2.0000     -18.921408      -514.8777
   2   2.0000     -18.888041      -513.9697
   3   2.0000     -18.878349      -513.7060
   4   2.0000     -18.872507      -513.5470
   5   2.0000     -10.110334      -275.1162
   6   2.0000     -10.084739      -274.4197
   7   2.0000     -10.056938      -273.6632
   8   2.0000     -10.048167      -273.4245
   9   2.0000     -10.038644      -273.1654
  10   2.0000     -10.037082      -273.1229
  11   2.0000     -10.008860      -272.3549
  12   2.0000     -10.006746      -272.2974
  13   2.0000     -10.006198      -272.2825
  14   2.0000     -10.002090      -272.1707
  15   2.0000     -10.001190      -272.1462
  16   2.0000     -10.001137      -272.1448
  17   2.0000      -9.999912      -272.1114
  18   2.0000      -9.999295      -272.0946
  19   2.0000      -9.998707      -272.0786
  20   2.0000      -9.998636      -272.0767
  21   2.0000      -9.996293      -272.0130
  22   2.0000      -9.993540      -271.9380
  23   2.0000      -1.031516       -28.0690
  24   2.0000      -1.000524       -27.2257
  25   2.0000      -0.984962       -26.8022
  26   2.0000      -0.949621       -25.8405
  27   2.0000      -0.946375       -25.7522
  28   2.0000      -0.809011       -22.0143
  29   2.0000      -0.806721       -21.9520
  30   2.0000      -0.744658       -20.2632
  31   2.0000      -0.722405       -19.6576
  32   2.0000      -0.710586       -19.3360
  33   2.0000      -0.699587       -19.0367
  34   2.0000      -0.697668       -18.9845
  35   2.0000      -0.668011       -18.1775
  36   2.0000      -0.648757       -17.6536
  37   2.0000      -0.620485       -16.8842
  38   2.0000      -0.585589       -15.9347
  39   2.0000      -0.568245       -15.4627
  40   2.0000      -0.561310       -15.2740
  41   2.0000      -0.549964       -14.9653
  42   2.0000      -0.517890       -14.0925
  43   2.0000      -0.512374       -13.9424
  44   2.0000      -0.488339       -13.2884
  45   2.0000      -0.482632       -13.1331
  46   2.0000      -0.471879       -12.8405
  47   2.0000      -0.450364       -12.2550
  48   2.0000      -0.447316       -12.1721
  49   2.0000      -0.440335       -11.9821
  50   2.0000      -0.436741       -11.8843
  51   2.0000      -0.432701       -11.7744
  52   2.0000      -0.426612       -11.6087
  53   2.0000      -0.421371       -11.4661
  54   2.0000      -0.409820       -11.1518
  55   2.0000      -0.406559       -11.0630
  56   2.0000      -0.404780       -11.0146
  57   2.0000      -0.399208       -10.8630
  58   2.0000      -0.394496       -10.7348
  59   2.0000      -0.385823       -10.4988
  60   2.0000      -0.380131       -10.3439
  61   2.0000      -0.375201       -10.2097
  62   2.0000      -0.368364       -10.0237
  63   2.0000      -0.367511       -10.0005
  64   2.0000      -0.353837        -9.6284
  65   2.0000      -0.340553        -9.2669
  66   2.0000      -0.336798        -9.1647
  67   2.0000      -0.333803        -9.0833
  68   2.0000      -0.328643        -8.9428
  69   2.0000      -0.325664        -8.8618
  70   2.0000      -0.322242        -8.7686
  71   2.0000      -0.310063        -8.4372
  72   2.0000      -0.300166        -8.1679
  73   2.0000      -0.297924        -8.1069
  74   2.0000      -0.294405        -8.0112
  75   2.0000      -0.271680        -7.3928
  76   2.0000      -0.246331        -6.7030
  77   2.0000      -0.244015        -6.6400
  78   2.0000      -0.242472        -6.5980
  79   2.0000      -0.239167        -6.5081
  80   2.0000      -0.232688        -6.3318
  81   2.0000      -0.223843        -6.0911
  82   2.0000      -0.210044        -5.7156
  83   0.0000      -0.100079        -2.7233
  84   0.0000      -0.080311        -2.1854
  85   0.0000      -0.043645        -1.1876
  86   0.0000      -0.039479        -1.0743
  87   0.0000      -0.000969        -0.0264

MULLIKEN ATOMIC CHARGES
-----------------------
   0 C :    0.336195
   1 C :   -0.233796
   2 C :   -0.154738
   3 C :   -0.203159
   4 C :    0.129522
   5 C :   -0.301703
   6 O :   -0.249611
   7 C :   -0.231607
   8 H :    0.144798
   9 H :    0.156614
  10 H :    0.144697
  11 C :    0.274462
  12 H :    0.114447
  13 H :    0.148161
  14 H :    0.135901
  15 H :    0.141747
  16 O :   -0.403369
  17 C :   -0.286799
  18 C :    0.178906
  19 O :   -0.502200
  20 C :    0.204777
  21 H :    0.089501
  22 C :   -0.208246
  23 H :    0.326214
  24 C :   -0.212893
  25 C :   -0.182452
  26 C :    0.123674
  27 C :   -0.175171
  28 H :    0.122012
  29 H :    0.119525
  30 H :    0.131629
  31 H :    0.128807
  32 C :    0.314606
  33 O :   -0.227989
  34 C :   -0.237051
  35 H :    0.146418
  36 H :    0.146742
  37 H :    0.151283
  38 O :   -0.393197
  39 H :    0.140613
  40 H :    0.152730
Sum of atomic charges:    0.0000000

LOEWDIN ATOMIC CHARGES
----------------------
   0 C :   -0.250786
   1 C :   -0.114469
   2 C :   -0.131079
   3 C :   -0.106946
   4 C :   -0.128717
   5 C :   -0.058350
   6 O :    0.227673
   7 C :   -0.304297
   8 H :    0.113594
   9 H :    0.118440
  10 H :    0.113576
  11 C :   -0.258967
  12 H :    0.157455
  13 H :    0.156357
  14 H :    0.152117
  15 H :    0.154652
  16 O :    0.087805
  17 C :   -0.193250
  18 C :   -0.290200
  19 O :   -0.032378
  20 C :   -0.111693
  21 H :    0.151985
  22 C :   -0.099060
  23 H :    0.174750
  24 C :   -0.099421
  25 C :   -0.087334
  26 C :   -0.130447
  27 C :   -0.082450
  28 H :    0.154786
  29 H :    0.152929
  30 H :    0.153720
  31 H :    0.155000
  32 C :   -0.440703
  33 O :    0.239663
  34 C :   -0.289175
  35 H :    0.115043
  36 H :    0.115173
  37 H :    0.116852
  38 O :    0.066420
  39 H :    0.167036
  40 H :    0.164697

  Mayer bond orders larger than 0.100000
B(  0-C ,  1-C ) :   1.2635 B(  0-C ,  5-C ) :   1.3280 B(  0-C ,  6-O ) :   1.1581
B(  1-C ,  2-C ) :   1.3681 B(  1-C , 13-H ) :   0.9562 B(  2-C ,  3-C ) :   1.4351
B(  2-C , 14-H ) :   0.9678 B(  3-C ,  4-C ) :   1.2985 B(  3-C , 15-H ) :   0.9683
B(  4-C ,  5-C ) :   1.3357 B(  4-C , 11-C ) :   1.0743 B(  5-C , 12-H ) :   1.0119
B(  6-O ,  7-C ) :   0.9345 B(  7-C ,  8-H ) :   0.9569 B(  7-C ,  9-H ) :   0.9620
B(  7-C , 10-H ) :   0.9570 B( 11-C , 16-O ) :   1.8156 B( 11-C , 17-C ) :   1.0159
B( 17-C , 18-C ) :   1.0198 B( 17-C , 39-H ) :   0.8911 B( 17-C , 40-H ) :   0.8997
B( 18-C , 19-O ) :   1.0249 B( 18-C , 20-C ) :   0.9462 B( 18-C , 21-H ) :   0.9279
B( 19-O , 23-H ) :   0.8399 B( 20-C , 22-C ) :   1.3280 B( 20-C , 24-C ) :   1.3163
B( 22-C , 25-C ) :   1.3867 B( 22-C , 29-H ) :   0.9913 B( 24-C , 27-C ) :   1.4170
B( 24-C , 28-H ) :   0.9933 B( 25-C , 26-C ) :   1.3261 B( 25-C , 30-H ) :   0.9889
B( 26-C , 27-C ) :   1.3213 B( 26-C , 32-C ) :   1.0239 B( 26-C , 33-O ) :  -0.1121
B( 27-C , 31-H ) :   0.9818 B( 32-C , 33-O ) :   1.2327 B( 32-C , 38-O ) :   1.9291
B( 33-O , 34-C ) :   0.9047 B( 34-C , 35-H ) :   0.9645 B( 34-C , 36-H ) :   0.9644
B( 34-C , 37-H ) :   0.9625

Dispersion correction           -0.061063326
FINAL SINGLE POINT ENERGY     -1073.537490489748

DIPOLE MOMENT
-------------
                                X             Y             Z
Electronic contribution:      5.45414       3.09925      -1.36230
Nuclear contribution   :     -8.01973      -4.30553       2.01260
                        -----------------------------------------
Total Dipole Moment    :     -2.56559      -1.20628       0.65030
                        -----------------------------------------
Magnitude (a.u.)       :      2.90865
Magnitude (Debye)      :      7.39321

VIBRATIONAL FREQUENCIES
-----------------------

Scaling factor for frequencies =  1.000000000 (already applied!)

   0:         0.00 cm**-1
   1:         0.00 cm**-1
   2:         0.00 cm**-1
   3:         0.00 cm**-1
   4:         0.00 cm**-1
   5:         0.00 cm**-1
   6:         9.52 cm**-1
   7:        13.49 cm**-1
   8:        24.99 cm**-1
   9:        41.10 cm**-1
  10:        48.72 cm**-1
  11:        73.18 cm**-1
  12:        80.92 cm**-1
  13:        83.65 cm**-1
  14:       115.47 cm**-1
  15:       124.60 cm**-1
  16:       138.94 cm**-1
  17:       156.67 cm**-1
  18:       162.59 cm**-1
  19:       200.69 cm**-1
  20:       204.56 cm**-1
  21:       229.13 cm**-1
  22:       244.91 cm**-1
  23:       260.90 cm**-1
  24:       270.65 cm**-1
  25:       289.14 cm**-1
  26:       313.12 cm**-1
  27:       357.38 cm**-1
  28:       400.77 cm**-1
  29:       404.81 cm**-1
  30:       418.73 cm**-1
  31:       428.56 cm**-1
  32:       470.80 cm**-1
  33:       480.78 cm**-1
  34:       491.59 cm**-1
  35:       512.58 cm**-1
  36:       548.41 cm**-1
  37:       557.62 cm**-1
  38:       562.94 cm**-1
  39:       600.31 cm**-1
  40:       629.23 cm**-1
  41:       646.15 cm**-1
  42:       667.33 cm**-1
  43:       684.34 cm**-1
  44:       704.93 cm**-1
  45:       740.48 cm**-1
  46:       765.37 cm**-1
  47:       777.34 cm**-1
  48:       802.53 cm**-1
  49:       831.06 cm**-1
  50:       845.73 cm**-1
  51:       847.20 cm**-1
  52:       870.99 cm**-1
  53:       878.78 cm**-1
  54:       887.71 cm**-1
  55:       908.19 cm**-1
  56:       949.28 cm**-1
  57:       964.02 cm**-1
  58:       971.82 cm**-1
  59:       975.33 cm**-1
  60:       991.59 cm**-1
  61:       998.08 cm**-1
  62:      1014.04 cm**-1
  63:      1020.25 cm**-1
  64:      1037.53 cm**-1
  65:      1055.24 cm**-1
  66:      1095.18 cm**-1
  67:      1107.38 cm**-1
  68:      1110.99 cm**-1
  69:      1148.38 cm**-1
  70:      1149.74 cm**-1
  71:      1155.26 cm**-1
  72:      1167.99 cm**-1
  73:      1179.57 cm**-1
  74:      1186.93 cm**-1
  75:      1187.52 cm**-1
  76:      1191.42 cm**-1
  77:      1196.09 cm**-1
  78:      1228.30 cm**-1
  79:      1248.80 cm**-1
  80:      1256.65 cm**-1
  81:      1294.96 cm**-1
  82:      1316.87 cm**-1
  83:      1321.93 cm**-1
  84:      1341.60 cm**-1
  85:      1351.50 cm**-1
  86:      1358.63 cm**-1
  87:      1397.27 cm**-1
  88:      1415.12 cm**-1
  89:      1422.23 cm**-1
  90:      1442.09 cm**-1
  91:      1448.02 cm**-1
  92:      1458.12 cm**-1
  93:      1467.03 cm**-1
  94:      1476.38 cm**-1
  95:      1476.94 cm**-1
  96:      1488.38 cm**-1
  97:      1493.24 cm**-1
  98:      1516.18 cm**-1
  99:      1577.55 cm**-1
 100:      1581.50 cm**-1
 101:      1598.57 cm**-1
 102:      1615.88 cm**-1
 103:      1640.02 cm**-1
 104:      1673.38 cm**-1
 105:      2959.97 cm**-1
 106:      2989.41 cm**-1
 107:      2998.65 cm**-1
 108:      3023.88 cm**-1
 109:      3048.87 cm**-1
 110:      3054.60 cm**-1
 111:      3099.07 cm**-1
 112:      3118.53 cm**-1
 113:      3130.99 cm**-1
 114:      3133.58 cm**-1
 115:      3144.20 cm**-1
 116:      3160.66 cm**-1
 117:      3161.52 cm**-1
 118:      3165.01 cm**-1
 119:      3173.01 cm**-1
 120:      3174.78 cm**-1
 121:      3175.97 cm**-1
 122:      3541.07 cm**-1

IR SPECTRUM
-----------

 Mode   freq       eps      Int      T**2         TX        TY        TZ
       cm**-1   L/(mol*cm) km/mol    a.u.
----------------------------------------------------------------------------
  6:      9.52   0.000042    0.21  0.001371  ( 0.012907 -0.025348 -0.023707)
  7:     13.49   0.000364    1.84  0.008432  ( 0.029575  0.086423  0.009392)
  8:     24.99   0.000138    0.70  0.001725  (-0.032598 -0.014999 -0.020905)
  9:     41.10   0.000757    3.83  0.005750  (-0.052331 -0.022947  0.049851)
 10:     48.72   0.000305    1.54  0.001951  (-0.033456 -0.026817 -0.010627)
 11:     73.18   0.000386    1.95  0.001647  ( 0.007014 -0.035975 -0.017430)
 12:     80.92   0.001383    6.99  0.005333  ( 0.020699  0.041865  0.056140)
 13:     83.65   0.000654    3.30  0.002438  (-0.004835  0.042083  0.025380)
 14:    115.47   0.000430    2.17  0.001162  ( 0.014140  0.030327 -0.006531)
 15:    124.60   0.001163    5.87  0.002911  ( 0.012224 -0.001798  0.052525)
 16:    138.94   0.000076    0.38  0.000170  ( 0.007661  0.006018 -0.008659)
 17:    156.67   0.000171    0.86  0.000341  (-0.012839 -0.013253  0.000499)
 18:    162.59   0.000888    4.49  0.001704  ( 0.031736  0.020720 -0.016348)
 19:    200.69   0.001358    6.86  0.002111  ( 0.040678  0.000098 -0.021363)
 20:    204.56   0.000138    0.70  0.000210  ( 0.009994  0.004601  0.009448)
 21:    229.13   0.001530    7.73  0.002084  ( 0.013469  0.039436 -0.018645)
 22:    244.91   0.000108    0.55  0.000138  ( 0.001415  0.008596  0.007851)
 23:    260.90   0.000218    1.10  0.000261  ( 0.003088  0.001707  0.015771)
 24:    270.65   0.000974    4.92  0.001123  (-0.012144 -0.016291  0.026649)
 25:    289.14   0.003991   20.17  0.004307  ( 0.064151  0.001246 -0.013799)
 26:    313.12   0.006021   30.43  0.006001  (-0.047898  0.045001  0.041008)
 27:    357.38   0.000633    3.20  0.000553  ( 0.023234 -0.003042 -0.001871)
 28:    400.77   0.000371    1.87  0.000289  ( 0.010650 -0.012257  0.005022)
 29:    404.81   0.000633    3.20  0.000488  ( 0.012001 -0.016226  0.009001)
 30:    418.73   0.001185    5.99  0.000883  (-0.021375  0.004864 -0.020070)
 31:    428.56   0.000432    2.18  0.000315  ( 0.013802 -0.005450 -0.009716)
 32:    470.80   0.003196   16.15  0.002119  ( 0.031523 -0.021086  0.026080)
 33:    480.78   0.000585    2.96  0.000380  (-0.006471 -0.018373  0.000643)
 34:    491.59   0.000177    0.89  0.000112  ( 0.006096 -0.008181  0.002856)
 35:    512.58   0.001263    6.38  0.000769  ( 0.001527 -0.014065 -0.023846)
 36:    548.41   0.002161   10.92  0.001230  ( 0.016738  0.018873 -0.024356)
 37:    557.62   0.010104   51.06  0.005654  (-0.035690 -0.066066 -0.004002)
 38:    562.94   0.036978  186.87  0.020499  (-0.112808 -0.087815 -0.007846)
 39:    600.31   0.001346    6.80  0.000700  ( 0.025489 -0.006984 -0.001166)
 40:    629.23   0.000336    1.70  0.000167  (-0.009039  0.002078  0.008988)
 41:    646.15   0.001281    6.48  0.000619  (-0.011739 -0.017892  0.012685)
 42:    667.33   0.000922    4.66  0.000431  (-0.011029 -0.002209  0.017455)
 43:    684.34   0.006346   32.07  0.002894  ( 0.003803  0.022028  0.048928)
 44:    704.93   0.007590   38.36  0.003360  (-0.035281 -0.043453  0.015069)
 45:    740.48   0.009137   46.17  0.003851  ( 0.057312 -0.008462  0.022234)
 46:    765.37   0.006672   33.72  0.002720  (-0.022276 -0.045835  0.011105)
 47:    777.34   0.010399   52.55  0.004175  ( 0.006721  0.035779  0.053381)
 48:    802.53   0.003630   18.35  0.001412  ( 0.015600 -0.007242 -0.033403)
 49:    831.06   0.003413   17.25  0.001282  ( 0.031864 -0.012055  0.011003)
 50:    845.73   0.002154   10.89  0.000795  (-0.006944  0.027316 -0.000636)
 51:    847.20   0.003735   18.87  0.001376  ( 0.002215 -0.036292  0.007321)
 52:    870.99   0.006763   34.18  0.002423  ( 0.038318  0.027320 -0.014442)
 53:    878.78   0.002965   14.98  0.001053  (-0.019218  0.020309 -0.016461)
 54:    887.71   0.002393   12.09  0.000841  ( 0.004975  0.024320  0.014996)
 55:    908.19   0.007040   35.58  0.002419  ( 0.006074  0.004812 -0.048570)
 56:    949.28   0.004999   25.26  0.001643  ( 0.025425 -0.020178  0.024287)
 57:    964.02   0.000030    0.15  0.000010  (-0.000650 -0.000996  0.002864)
 58:    971.82   0.000017    0.08  0.000005  ( 0.000728  0.002042 -0.000779)
 59:    975.33   0.000691    3.49  0.000221  ( 0.014427 -0.003600  0.000046)
 60:    991.59   0.011534   58.29  0.003630  ( 0.058940  0.000096 -0.012488)
 61:    998.08   0.035617  179.99  0.011136  ( 0.102886 -0.015407 -0.017692)
 62:   1014.04   0.012301   62.16  0.003786  ( 0.048796 -0.016320  0.033737)
 63:   1020.25   0.003420   17.29  0.001046  (-0.011598  0.024943  0.017016)
 64:   1037.53   0.010303   52.07  0.003099  ( 0.035301  0.015625 -0.040106)
 65:   1055.24   0.009813   49.59  0.002902  (-0.004521 -0.015278  0.051461)
 66:   1095.18   0.053647  271.11  0.015286  (-0.084549  0.083769  0.033476)
 67:   1107.38   0.001010    5.11  0.000285  ( 0.007728  0.013636 -0.006246)
 68:   1110.99   0.000572    2.89  0.000161  (-0.000118  0.002260 -0.012471)
 69:   1148.38   0.000330    1.67  0.000090  ( 0.001301  0.000878  0.009335)
 70:   1149.74   0.000310    1.57  0.000084  (-0.004947 -0.007692  0.000756)
 71:   1155.26   0.013135   66.38  0.003548  (-0.027241 -0.042768  0.031256)
 72:   1167.99   0.026284  132.83  0.007023  ( 0.067607 -0.030987 -0.038623)
 73:   1179.57   0.001150    5.81  0.000304  ( 0.012712  0.009942 -0.006613)
 74:   1186.93   0.002402   12.14  0.000631  ( 0.005359  0.024540  0.000730)
 75:   1187.52   0.016336   82.56  0.004293  (-0.034445  0.052667 -0.018238)
 76:   1191.42   0.026192  132.37  0.006860  (-0.046771 -0.009964  0.067628)
 77:   1196.09   0.013546   68.45  0.003534  (-0.037169 -0.032866  0.032748)
 78:   1228.30   0.011350   57.36  0.002884  (-0.046696 -0.003269  0.026313)
 79:   1248.80   0.108841  550.04  0.027198  ( 0.158660 -0.041826 -0.016614)
 80:   1256.65   0.118277  597.72  0.029372  (-0.125052  0.112940  0.031276)
 81:   1294.96   0.006174   31.20  0.001488  (-0.034690  0.016825 -0.001208)
 82:   1316.87   0.002704   13.67  0.000641  (-0.012955  0.020405 -0.007522)
 83:   1321.93   0.028324  143.14  0.006686  ( 0.072261 -0.030512  0.023099)
 84:   1341.60   0.007808   39.46  0.001816  ( 0.041623 -0.003112 -0.008602)
 85:   1351.50   0.003327   16.81  0.000768  (-0.025916 -0.004306  0.008830)
 86:   1358.63   0.005191   26.23  0.001192  (-0.024420 -0.019629  0.014512)
 87:   1397.27   0.020827  105.25  0.004651  ( 0.059959 -0.020654 -0.025094)
 88:   1415.12   0.008507   42.99  0.001876  ( 0.024173  0.007043 -0.035242)
 89:   1422.23   0.007064   35.70  0.001550  (-0.021918 -0.031018  0.010370)
 90:   1442.09   0.028100  142.01  0.006081  (-0.073886  0.024930 -0.000385)
 91:   1448.02   0.006057   30.61  0.001305  ( 0.027298 -0.022362  0.007758)
 92:   1458.12   0.008662   43.77  0.001854  (-0.041588 -0.004326  0.010273)
 93:   1467.03   0.002076   10.49  0.000441  ( 0.012063  0.016941 -0.003001)
 94:   1476.38   0.002109   10.66  0.000446  (-0.003834 -0.010134 -0.018121)
 95:   1476.94   0.002229   11.26  0.000471  (-0.008316  0.010013  0.017363)
 96:   1488.38   0.002439   12.33  0.000511  ( 0.015779 -0.015253  0.005454)
 97:   1493.24   0.010913   55.15  0.002281  ( 0.036414 -0.029948  0.007597)
 98:   1516.18   0.000694    3.51  0.000143  (-0.001902  0.002638 -0.011500)
 99:   1577.55   0.005152   26.03  0.001019  (-0.017256  0.015977 -0.021588)
100:   1581.50   0.027611  139.53  0.005448  ( 0.038251 -0.059353  0.021500)
101:   1598.57   0.021683  109.58  0.004233  ( 0.007908  0.055750 -0.032592)
102:   1615.88   0.020001  101.08  0.003863  ( 0.044729 -0.036183  0.023512)
103:   1640.02   0.049824  251.79  0.009481  ( 0.048091  0.068969 -0.049103)
104:   1673.38   0.100063  505.68  0.018660  (-0.057394  0.019197 -0.122465)
105:   2959.97   0.010316   52.13  0.001088  ( 0.001879  0.023266  0.023297)
106:   2989.41   0.012288   62.10  0.001283  ( 0.033660  0.007097 -0.009969)
107:   2998.65   0.004075   20.59  0.000424  (-0.019841 -0.005512  0.000078)
108:   3023.88   0.007315   36.97  0.000755  (-0.020699  0.017833 -0.002913)
109:   3048.87   0.001686    8.52  0.000173  (-0.003329 -0.000589  0.012695)
110:   3054.60   0.009250   46.75  0.000945  (-0.005270 -0.013186 -0.027265)
111:   3099.07   0.005480   27.69  0.000552  (-0.015156 -0.017499  0.003986)
112:   3118.53   0.005281   26.69  0.000528  ( 0.012909 -0.017788  0.006739)
113:   3130.99   0.002404   12.15  0.000240  ( 0.008370 -0.009917 -0.008441)
114:   3133.58   0.003903   19.72  0.000389  (-0.003318  0.006713  0.018237)
115:   3144.20   0.002221   11.22  0.000220  ( 0.002459  0.012977 -0.006781)
116:   3160.66   0.000281    1.42  0.000028  ( 0.003290 -0.001238  0.003928)
117:   3161.52   0.001517    7.67  0.000150  (-0.002060  0.004918  0.011013)
118:   3165.01   0.001654    8.36  0.000163  (-0.011801  0.004882  0.000082)
119:   3173.01   0.001483    7.49  0.000146  ( 0.010618 -0.005732  0.000482)
120:   3174.78   0.001459    7.37  0.000143  (-0.001738  0.003493  0.011322)
121:   3175.97   0.000803    4.06  0.000079  ( 0.002096  0.007547 -0.004184)
122:   3541.07   0.066664  336.89  0.005875  (-0.072687  0.024301  0.000974)

--------------------------
THERMOCHEMISTRY AT 298.15K
--------------------------

Temperature         ... 298.15 K
Pressure            ... 1.00 atm
Total Mass          ... 314.34 AMU

Throughout the following assumptions are being made:
  (1) The electronic state is orbitally nondegenerate
  (2) There are no thermally accessible electronically excited states
  (3) Hindered rotations indicated by low frequency modes are not
      treated as such but are treated as vibrations and this may
      cause some error
  (4) All equations used are the standard statistical mechanics
      equations for an ideal gas
  (5) All vibrations are strictly harmonic

freq.       9.52  E(vib)   ...       0.58
freq.      13.49  E(vib)   ...       0.57
freq.      24.99  E(vib)   ...       0.56
freq.      41.10  E(vib)   ...       0.54
freq.      48.72  E(vib)   ...       0.53
freq.      73.18  E(vib)   ...       0.49
freq.      80.92  E(vib)   ...       0.48
freq.      83.65  E(vib)   ...       0.48
freq.     115.47  E(vib)   ...       0.44
freq.     124.60  E(vib)   ...       0.43
freq.     138.94  E(vib)   ...       0.42
freq.     156.67  E(vib)   ...       0.40
freq.     162.59  E(vib)   ...       0.39
freq.     200.69  E(vib)   ...       0.35
freq.     204.56  E(vib)   ...       0.35
freq.     229.13  E(vib)   ...       0.32
freq.     244.91  E(vib)   ...       0.31
freq.     260.90  E(vib)   ...       0.30
freq.     270.65  E(vib)   ...       0.29
freq.     289.14  E(vib)   ...       0.27
freq.     313.12  E(vib)   ...       0.25
freq.     357.38  E(vib)   ...       0.22
freq.     400.77  E(vib)   ...       0.19
freq.     404.81  E(vib)   ...       0.19
freq.     418.73  E(vib)   ...       0.18
freq.     428.56  E(vib)   ...       0.18
freq.     470.80  E(vib)   ...       0.15
freq.     480.78  E(vib)   ...       0.15
freq.     491.59  E(vib)   ...       0.14
freq.     512.58  E(vib)   ...       0.13
freq.     548.41  E(vib)   ...       0.12
freq.     557.62  E(vib)   ...       0.12
freq.     562.94  E(vib)   ...       0.11
freq.     600.31  E(vib)   ...       0.10
freq.     629.23  E(vib)   ...       0.09
freq.     646.15  E(vib)   ...       0.09
freq.     667.33  E(vib)   ...       0.08
freq.     684.34  E(vib)   ...       0.07
freq.     704.93  E(vib)   ...       0.07
freq.     740.48  E(vib)   ...       0.06
freq.     765.37  E(vib)   ...       0.06
freq.     777.34  E(vib)   ...       0.05
freq.     802.53  E(vib)   ...       0.05
freq.     831.06  E(vib)   ...       0.04
freq.     845.73  E(vib)   ...       0.04
freq.     847.20  E(vib)   ...       0.04
freq.     870.99  E(vib)   ...       0.04
freq.     878.78  E(vib)   ...       0.04
freq.     887.71  E(vib)   ...       0.04
freq.     908.19  E(vib)   ...       0.03
freq.     949.28  E(vib)   ...       0.03
freq.     964.02  E(vib)   ...       0.03
freq.     971.82  E(vib)   ...       0.03
freq.     975.33  E(vib)   ...       0.03
freq.     991.59  E(vib)   ...       0.02
freq.     998.08  E(vib)   ...       0.02
freq.    1014.04  E(vib)   ...       0.02
freq.    1020.25  E(vib)   ...       0.02
freq.    1037.53  E(vib)   ...       0.02
freq.    1055.24  E(vib)   ...       0.02
freq.    1095.18  E(vib)   ...       0.02
freq.    1107.38  E(vib)   ...       0.02
freq.    1110.99  E(vib)   ...       0.01
freq.    1148.38  E(vib)   ...       0.01
freq.    1149.74  E(vib)   ...       0.01
freq.    1155.26  E(vib)   ...       0.01
freq.    1167.99  E(vib)   ...       0.01
freq.    1179.57  E(vib)   ...       0.01
freq.    1186.93  E(vib)   ...       0.01
freq.    1187.52  E(vib)   ...       0.01
freq.    1191.42  E(vib)   ...       0.01
freq.    1196.09  E(vib)   ...       0.01
freq.    1228.30  E(vib)   ...       0.01
freq.    1248.80  E(vib)   ...       0.01
freq.    1256.65  E(vib)   ...       0.01
freq.    1294.96  E(vib)   ...       0.01
freq.    1316.87  E(vib)   ...       0.01
freq.    1321.93  E(vib)   ...       0.01
freq.    1341.60  E(vib)   ...       0.01
freq.    1351.50  E(vib)   ...       0.01
freq.    1358.63  E(vib)   ...       0.01
freq.    1397.27  E(vib)   ...       0.00
freq.    1415.12  E(vib)   ...       0.00
freq.    1422.23  E(vib)   ...       0.00
freq.    1442.09  E(vib)   ...       0.00
freq.    1448.02  E(vib)   ...       0.00
freq.    1458.12  E(vib)   ...       0.00
freq.    1467.03  E(vib)   ...       0.00
freq.    1476.38  E(vib)   ...       0.00
freq.    1476.94  E(vib)   ...       0.00
freq.    1488.38  E(vib)   ...       0.00
freq.    1493.24  E(vib)   ...       0.00
freq.    1516.18  E(vib)   ...       0.00
freq.    1577.55  E(vib)   ...       0.00
freq.    1581.50  E(vib)   ...       0.00
freq.    1598.57  E(vib)   ...       0.00
freq.    1615.88  E(vib)   ...       0.00
freq.    1640.02  E(vib)   ...       0.00
freq.    1673.38  E(vib)   ...       0.00
freq.    2959.97  E(vib)   ...       0.00
freq.    2989.41  E(vib)   ...       0.00
freq.    2998.65  E(vib)   ...       0.00
freq.    3023.88  E(vib)   ...       0.00
freq.    3048.87  E(vib)   ...       0.00
freq.    3054.60  E(vib)   ...       0.00
freq.    3099.07  E(vib)   ...       0.00
freq.    3118.53  E(vib)   ...       0.00
freq.    3130.99  E(vib)   ...       0.00
freq.    3133.58  E(vib)   ...       0.00
freq.    3144.20  E(vib)   ...       0.00
freq.    3160.66  E(vib)   ...       0.00
freq.    3161.52  E(vib)   ...       0.00
freq.    3165.01  E(vib)   ...       0.00
freq.    3173.01  E(vib)   ...       0.00
freq.    3174.78  E(vib)   ...       0.00
freq.    3175.97  E(vib)   ...       0.00
freq.    3541.07  E(vib)   ...       0.00

------------
INNER ENERGY
------------

The inner energy is: U= E(el) + E(ZPE) + E(vib) + E(rot) + E(trans)
    E(el)   - is the total energy from the electronic structure calculation
              = E(kin-el) + E(nuc-el) + E(el-el) + E(nuc-nuc)
    E(ZPE)  - the the zero temperature vibrational energy from the frequency calculation
    E(vib)  - the the finite temperature correction to E(ZPE) due to population
              of excited vibrational states
    E(rot)  - is the rotational thermal energy
    E(trans)- is the translational thermal energy

Summary of contributions to the inner energy U:
Electronic energy                ...  -1073.53749053 Eh
Zero point energy                ...      0.32082098 Eh     201.32 kcal/mol
Thermal vibrational correction   ...      0.01935445 Eh      12.15 kcal/mol
Thermal rotational correction    ...      0.00141627 Eh       0.89 kcal/mol
Thermal translational correction ...      0.00141627 Eh       0.89 kcal/mol
-----------------------------------------------------------------------
Total thermal energy                  -1073.19448256 Eh

Summary of corrections to the electronic energy:
(perhaps to be used in another calculation)
Total thermal correction                  0.02218699 Eh      13.92 kcal/mol

Rotational constants in cm-1:     0.025376     0.002488     0.002358

                             ****ORCA TERMINATED NORMALLY****
TOTAL RUN TIME: 0 days 14 hours 50 minutes 51 seconds 493 msec
