                         Program Version 5.0.2 -  RELEASE  -
|  1> ! PW6B95 D3BJ def2-QZVP RIJK def2/JK tightSCF CPCM(THF)
|  2> ! sp Pal4
|  3>
|  4> * xyz 0 1
|  5>  C   -2.59954856745799      2.34536796216961      0.05607051934307
|  6>   C   -2.77618680980293      1.11091908234782      0.70017579268761
|  7>   C   -1.67644729274962      0.27071492982147      0.89345763215790
|  8>   C   -0.40702371989695      0.64051687631778      0.46254361301018
|  9>   C   -0.23187758343005      1.87650658851799     -0.18594099287713
| 10>   C   -1.32907161442793      2.72047439228295     -0.38787962964394
| 11>   O   -3.60467847605190      3.23928725254928     -0.18045796980310
| 12>   C   -4.92719722008809      2.88116760611120      0.26166102490209
| 13>   H   -5.26746334135929      1.96664832562226     -0.23668130563110
| 14>   H   -5.56227212244801      3.71990731857006     -0.02219679559950
| 15>   H   -4.94834168014938      2.74486452617761      1.34862155306298
| 16>   C   1.09870368638407      2.32009552255250     -0.68380111294709
| 17>   H   -1.19226129634865      3.67255591308860     -0.89033142330580
| 18>   H   -3.75396621814185      0.80017948372149      1.05023617979236
| 19>   H   -1.82301608435010     -0.68360283044775      1.39083428268684
| 20>   H   0.43246196398659     -0.02656629573850      0.62186530882203
| 21>   O   1.21605395962883      3.37444892909447     -1.31773307025025
| 22>   C   2.31138182701574      1.44749565011927     -0.40651341085115
| 23>   C   3.64126673900434      2.15246590988581     -0.73148317455556
| 24>   O   3.70326685385286      2.51847042262068     -2.11595690789838
| 25>   C   4.80280453498913      1.24481989619024     -0.40127224971876
| 26>   H   3.71135502489978      3.05553706028384     -0.10682907236336
| 27>   C   5.42545975430921      0.47364264323163     -1.38899802662277
| 28>   H   2.90689321634736      3.07490452928578     -2.24318250157354
| 29>   C   5.24069132698994      1.13757699248126      0.92578262765706
| 30>   C   6.46498546359291     -0.39200165349672     -1.05848015333480
| 31>   C   6.89626847153537     -0.50160800189823      0.27100523197919
| 32>   C   6.27449914553534      0.27248012586005      1.26176787725332
| 33>   H   4.76945314714798      1.74145924449853      1.69762694783861
| 34>   H   5.09431035895668      0.56035712917165     -2.41823126869638
| 35>   H   6.94345943030178     -0.98415352276848     -1.83076868489395
| 36>   H   6.61739795764822      0.19035531063850      2.28824168507238
| 37>   C   7.99889715311404     -1.40915716582917      0.67648294046353
| 38>   O   8.51471854264170     -2.09746059409849     -0.36817691840381
| 39>   C   9.59996789681317     -3.00326538952898     -0.03654548098938
| 40>   H   9.25090390052944     -3.75840799555884      0.67117535024997
| 41>   H   10.43169428141506     -2.44372462742325      0.39700833784898
| 42>   H   9.88640017767045     -3.45819401970650     -0.98360293360203
| 43>   O   8.40969849608058     -1.53604411258607      1.82216275312859
| 44>   H   2.22672429045669      0.53115307385488     -1.00692889437713
| 45>   H   2.30405011615530      1.13522055161359      0.64372228088149
| 46> *
| 47>
| 48>                          ****END OF INPUT****

CARTESIAN COORDINATES (ANGSTROEM)
---------------------------------
  C     -2.599549    2.345368    0.056071
  C     -2.776187    1.110919    0.700176
  C     -1.676447    0.270715    0.893458
  C     -0.407024    0.640517    0.462544
  C     -0.231878    1.876507   -0.185941
  C     -1.329072    2.720474   -0.387880
  O     -3.604678    3.239287   -0.180458
  C     -4.927197    2.881168    0.261661
  H     -5.267463    1.966648   -0.236681
  H     -5.562272    3.719907   -0.022197
  H     -4.948342    2.744865    1.348622
  C      1.098704    2.320096   -0.683801
  H     -1.192261    3.672556   -0.890331
  H     -3.753966    0.800179    1.050236
  H     -1.823016   -0.683603    1.390834
  H      0.432462   -0.026566    0.621865
  O      1.216054    3.374449   -1.317733
  C      2.311382    1.447496   -0.406513
  C      3.641267    2.152466   -0.731483
  O      3.703267    2.518470   -2.115957
  C      4.802805    1.244820   -0.401272
  H      3.711355    3.055537   -0.106829
  C      5.425460    0.473643   -1.388998
  H      2.906893    3.074905   -2.243183
  C      5.240691    1.137577    0.925783
  C      6.464985   -0.392002   -1.058480
  C      6.896268   -0.501608    0.271005
  C      6.274499    0.272480    1.261768
  H      4.769453    1.741459    1.697627
  H      5.094310    0.560357   -2.418231
  H      6.943459   -0.984154   -1.830769
  H      6.617398    0.190355    2.288242
  C      7.998897   -1.409157    0.676483
  O      8.514719   -2.097461   -0.368177
  C      9.599968   -3.003265   -0.036545
  H      9.250904   -3.758408    0.671175
  H     10.431694   -2.443725    0.397008
  H      9.886400   -3.458194   -0.983603
  O      8.409698   -1.536044    1.822163
  H      2.226724    0.531153   -1.006929
  H      2.304050    1.135221    0.643722

 Total Charge           Charge          ....    0
 Multiplicity           Mult            ....    1
 Number of Electrons    NEL             ....  166
 Basis Dimension        Dim             .... 1851

ORBITAL ENERGIES
----------------

  NO   OCC          E(Eh)            E(eV)
   0   2.0000     -19.345724      -526.4239
   1   2.0000     -19.334496      -526.1184
   2   2.0000     -19.303515      -525.2754
   3   2.0000     -19.293799      -525.0109
   4   2.0000     -19.289457      -524.8928
   5   2.0000     -10.435405      -283.9618
   6   2.0000     -10.406815      -283.1838
   7   2.0000     -10.374165      -282.2954
   8   2.0000     -10.363527      -282.0059
   9   2.0000     -10.347297      -281.5643
  10   2.0000     -10.346710      -281.5483
  11   2.0000     -10.324622      -280.9473
  12   2.0000     -10.322804      -280.8978
  13   2.0000     -10.322216      -280.8818
  14   2.0000     -10.315573      -280.7010
  15   2.0000     -10.314756      -280.6788
  16   2.0000     -10.314696      -280.6771
  17   2.0000     -10.313968      -280.6573
  18   2.0000     -10.313482      -280.6441
  19   2.0000     -10.312795      -280.6254
  20   2.0000     -10.312322      -280.6126
  21   2.0000     -10.309723      -280.5418
  22   2.0000     -10.307175      -280.4725
  23   2.0000      -1.136855       -30.9354
  24   2.0000      -1.100499       -29.9461
  25   2.0000      -1.088582       -29.6218
  26   2.0000      -1.050568       -28.5874
  27   2.0000      -1.049110       -28.5477
  28   2.0000      -0.898121       -24.4391
  29   2.0000      -0.895105       -24.3570
  30   2.0000      -0.829468       -22.5710
  31   2.0000      -0.805802       -21.9270
  32   2.0000      -0.791966       -21.5505
  33   2.0000      -0.781278       -21.2597
  34   2.0000      -0.778958       -21.1965
  35   2.0000      -0.746426       -20.3113
  36   2.0000      -0.724490       -19.7144
  37   2.0000      -0.696968       -18.9655
  38   2.0000      -0.659367       -17.9423
  39   2.0000      -0.640147       -17.4193
  40   2.0000      -0.633107       -17.2277
  41   2.0000      -0.621794       -16.9199
  42   2.0000      -0.587318       -15.9817
  43   2.0000      -0.580395       -15.7934
  44   2.0000      -0.558470       -15.1967
  45   2.0000      -0.550724       -14.9860
  46   2.0000      -0.539146       -14.6709
  47   2.0000      -0.514777       -14.0078
  48   2.0000      -0.512341       -13.9415
  49   2.0000      -0.506120       -13.7722
  50   2.0000      -0.505397       -13.7526
  51   2.0000      -0.503586       -13.7033
  52   2.0000      -0.491595       -13.3770
  53   2.0000      -0.485690       -13.2163
  54   2.0000      -0.474117       -12.9014
  55   2.0000      -0.470192       -12.7946
  56   2.0000      -0.468431       -12.7467
  57   2.0000      -0.463084       -12.6012
  58   2.0000      -0.454479       -12.3670
  59   2.0000      -0.445545       -12.1239
  60   2.0000      -0.441767       -12.0211
  61   2.0000      -0.434202       -11.8152
  62   2.0000      -0.427728       -11.6391
  63   2.0000      -0.426996       -11.6192
  64   2.0000      -0.409741       -11.1496
  65   2.0000      -0.398519       -10.8443
  66   2.0000      -0.395438       -10.7604
  67   2.0000      -0.390020       -10.6130
  68   2.0000      -0.386728       -10.5234
  69   2.0000      -0.383935       -10.4474
  70   2.0000      -0.383672       -10.4402
  71   2.0000      -0.368152       -10.0179
  72   2.0000      -0.358160        -9.7460
  73   2.0000      -0.356672        -9.7055
  74   2.0000      -0.350447        -9.5362
  75   2.0000      -0.332045        -9.0354
  76   2.0000      -0.310164        -8.4400
  77   2.0000      -0.306045        -8.3279
  78   2.0000      -0.294763        -8.0209
  79   2.0000      -0.285885        -7.7793
  80   2.0000      -0.280742        -7.6394
  81   2.0000      -0.271790        -7.3958
  82   2.0000      -0.253388        -6.8950
  83   0.0000      -0.071935        -1.9575
  84   0.0000      -0.053793        -1.4638
  85   0.0000      -0.016130        -0.4389
  86   0.0000      -0.011793        -0.3209
  87   0.0000       0.022410         0.6098

MULLIKEN ATOMIC CHARGES
-----------------------
   0 C :    0.102526
   1 C :   -0.075166
   2 C :   -0.205433
   3 C :   -0.085233
   4 C :    0.050943
   5 C :   -0.045367
   6 O :   -0.366371
   7 C :   -0.080068
   8 H :    0.109928
   9 H :    0.132227
  10 H :    0.110225
  11 C :    0.178781
  12 H :    0.116451
  13 H :    0.124051
  14 H :    0.132735
  15 H :    0.116632
  16 O :   -0.397460
  17 C :   -0.046430
  18 C :    0.024539
  19 O :   -0.472870
  20 C :    0.128917
  21 H :    0.122191
  22 C :   -0.177859
  23 H :    0.265942
  24 C :   -0.180150
  25 C :   -0.106859
  26 C :    0.021700
  27 C :   -0.106273
  28 H :    0.121113
  29 H :    0.118781
  30 H :    0.125841
  31 H :    0.125706
  32 C :    0.361827
  33 O :   -0.351737
  34 C :   -0.085376
  35 H :    0.126057
  36 H :    0.126113
  37 H :    0.124386
  38 O :   -0.431900
  39 H :    0.146025
  40 H :    0.100913
Sum of atomic charges:    0.0000000

LOEWDIN ATOMIC CHARGES
----------------------
   0 C :   -0.344389
   1 C :    0.080047
   2 C :    0.072461
   3 C :    0.083607
   4 C :   -0.108306
   5 C :    0.106320
   6 O :    0.499069
   7 C :    0.077148
   8 H :   -0.061065
   9 H :   -0.062605
  10 H :   -0.061062
  11 C :   -0.411148
  12 H :   -0.045025
  13 H :   -0.053299
  14 H :   -0.049212
  15 H :   -0.049610
  16 O :    0.342508
  17 C :    0.119933
  18 C :   -0.235793
  19 O :    0.597396
  20 C :   -0.079883
  21 H :   -0.029258
  22 C :    0.092933
  23 H :   -0.378059
  24 C :    0.093664
  25 C :    0.098307
  26 C :   -0.119341
  27 C :    0.099958
  28 H :   -0.043160
  29 H :   -0.050943
  30 H :   -0.050212
  31 H :   -0.045853
  32 C :   -0.742038
  33 O :    0.500935
  34 C :    0.097500
  35 H :   -0.062007
  36 H :   -0.061936
  37 H :   -0.065442
  38 O :    0.283703
  39 H :   -0.016505
  40 H :   -0.019338

  Mayer bond orders larger than 0.100000
B(  0-C ,  1-C ) :   1.3233 B(  0-C ,  5-C ) :   1.3299 B(  0-C ,  6-O ) :   1.1346
B(  1-C ,  2-C ) :   1.3585 B(  1-C , 13-H ) :   0.9507 B(  2-C ,  3-C ) :   1.4131
B(  2-C , 14-H ) :   0.9494 B(  3-C ,  4-C ) :   1.2953 B(  3-C , 15-H ) :   0.9510
B(  4-C ,  5-C ) :   1.2974 B(  4-C , 11-C ) :   1.0354 B(  5-C , 12-H ) :   0.9391
B(  6-O ,  7-C ) :   0.8962 B(  7-C ,  8-H ) :   0.9602 B(  7-C ,  9-H ) :   0.9672
B(  7-C , 10-H ) :   0.9604 B( 11-C , 16-O ) :   1.8570 B( 11-C , 17-C ) :   0.9617
B( 17-C , 18-C ) :   0.9181 B( 17-C , 39-H ) :   0.9194 B( 17-C , 40-H ) :   0.9066
B( 18-C , 19-O ) :   1.0772 B( 18-C , 20-C ) :   0.9436 B( 18-C , 21-H ) :   0.9589
B( 19-O , 23-H ) :   0.9105 B( 20-C , 22-C ) :   1.3224 B( 20-C , 24-C ) :   1.2885
B( 22-C , 25-C ) :   1.3843 B( 22-C , 29-H ) :   0.9557 B( 24-C , 27-C ) :   1.4060
B( 24-C , 28-H ) :   0.9575 B( 25-C , 26-C ) :   1.3023 B( 25-C , 30-H ) :   0.9494
B( 26-C , 27-C ) :   1.2854 B( 26-C , 32-C ) :   1.0313 B( 27-C , 31-H ) :   0.9481
B( 32-C , 33-O ) :   1.1946 B( 32-C , 38-O ) :   1.8907 B( 33-O , 34-C ) :   0.8517
B( 34-C , 35-H ) :   0.9631 B( 34-C , 36-H ) :   0.9633 B( 34-C , 37-H ) :   0.9630

Dispersion correction           -0.024890377
FINAL SINGLE POINT ENERGY     -1074.729558461145

DIPOLE MOMENT
-------------
                                X             Y             Z
Electronic contribution:      5.52505       3.00533      -1.30357
Nuclear contribution   :     -8.01973      -4.30553       2.01260
                        -----------------------------------------
Total Dipole Moment    :     -2.49468      -1.30020       0.70903
                        -----------------------------------------
Magnitude (a.u.)       :      2.90115
Magnitude (Debye)      :      7.37413

Rotational constants in cm-1:     0.025376     0.002488     0.002358
Rotational constants in MHz :   760.745294    74.580450    70.685540

                             ****ORCA TERMINATED NORMALLY****
TOTAL RUN TIME: 0 days 1 hours 3 minutes 59 seconds 858 msec
