   * xtb version 6.4.1 (afa7bdf) compiled by 'ehlert@majestix' on 2021-06-10
          program call               : xtb Keton-CLi.xyz --opt --alpb thf
          number of atoms            :                    21
          number of electrons        :                    58
          charge                     :                     0

   ID    Z sym.   atoms
    1    6 C      1-6, 12, 16, 17
    2    1 H      7-10, 13-15, 18, 20
    3    8 O      11, 21
    4    3 Li     19

        Solvent                        thf
        Solvent mass                       7.2106E+01 g/mol
          :  Hamiltonian                  GFN2-xTB          :
 * total energy  :   -32.2278151 Eh     change       -0.2998846E-09 Eh
 * total energy  :   -32.2375637 Eh     change       -0.9748599E-02 Eh
 * total energy  :   -32.2440202 Eh     change       -0.6456445E-02 Eh
 * total energy  :   -32.2482107 Eh     change       -0.4190489E-02 Eh
 * total energy  :   -32.2493560 Eh     change       -0.1145292E-02 Eh
 * total energy  :   -32.2499646 Eh     change       -0.6086382E-03 Eh
 * total energy  :   -32.2501451 Eh     change       -0.1804692E-03 Eh
 * total energy  :   -32.2502345 Eh     change       -0.8941549E-04 Eh
 * total energy  :   -32.2507488 Eh     change       -0.5143225E-03 Eh
 * total energy  :   -32.2488676 Eh     change        0.1881246E-02 Eh
 * total energy  :   -32.3012631 Eh     change       -0.3334229E-04 Eh
 * total energy  :   -32.3012963 Eh     change       -0.3326357E-04 Eh
 * total energy  :   -32.3013192 Eh     change       -0.2290409E-04 Eh
 * total energy  :   -32.3013385 Eh     change       -0.1929552E-04 Eh
 * total energy  :   -32.3013583 Eh     change       -0.1972470E-04 Eh
 * total energy  :   -32.3013674 Eh     change       -0.9153044E-05 Eh
 * total energy  :   -32.3013725 Eh     change       -0.5124257E-05 Eh
 * total energy  :   -32.3013753 Eh     change       -0.2722418E-05 Eh
 * total energy  :   -32.3013775 Eh     change       -0.2256788E-05 Eh
   *** GEOMETRY OPTIMIZATION CONVERGED AFTER 60 ITERATIONS ***

 final structure:
================
21
 xtb: 6.4.1 (afa7bdf)
C        -2.69567634634206    1.41897523081955   -0.05984102051493
C        -2.89414867121397    0.05050949267176    0.07611587562425
C        -1.79386091403176   -0.78421216308561    0.20788436854003
C        -0.50928594276036   -0.28053538699702    0.20440527589661
C        -0.29713582934760    1.09147692659901    0.06205795990778
C        -1.39802539170615    1.92467434378225   -0.06459996895639
H        -1.25534148987242    2.99070426696624   -0.18283618998207
H        -3.88489546979330   -0.37505352044288    0.08466396708163
H        -1.95381743605293   -1.84666081202244    0.32076901592965
H         0.33275457821490   -0.94326523689147    0.32654873290731
O        -3.69234447860876    2.34683363161921   -0.19232861416834
C        -5.03324394598759    1.90323694008098   -0.18343513678651
H        -5.23374097668982    1.22148199993325   -1.01536512674912
H        -5.63614041621340    2.80238366834809   -0.29782163156879
H        -5.28405144222628    1.41269370239718    0.76203722443230
C         1.06965738290206    1.67430745368056    0.06080432627813
C         2.09522495283738    1.00992445093128   -0.48647209486190
H         3.08420214491062    1.43660533635746   -0.49994099624516
Li        1.30340292145328    4.32537152704249    1.22454547141414
H         1.96146573052738    0.05436349451452   -0.95668762262677
O         1.19790878350139    2.87643355129486    0.60949634714811

          :  Hamiltonian                  GFN2-xTB          :
         :: total energy             -32.301377521397 Eh    ::
         :: gradient norm              0.000680546548 Eh/a0 ::
         :: HOMO-LUMO gap              2.720785987178 eV    ::
         :: SCC energy               -32.774651632505 Eh    ::
         :: -> dispersion             -0.018210360793 Eh    ::
         :: -> Gsolv                  -0.033837188289 Eh    ::
         :: repulsion energy           0.473271594251 Eh    ::

    * Orbital Energies and Occupations

         #    Occupation            Energy/Eh            Energy/eV
      -------------------------------------------------------------
         1        2.0000           -0.7098219             -19.3152
       ...           ...                  ...                  ...
        17        2.0000           -0.4798869             -13.0584
        18        2.0000           -0.4725712             -12.8593
        19        2.0000           -0.4668620             -12.7040
        20        2.0000           -0.4605023             -12.5309
        21        2.0000           -0.4544650             -12.3666
        22        2.0000           -0.4379168             -11.9163
        23        2.0000           -0.4333928             -11.7932
        24        2.0000           -0.4264255             -11.6036
        25        2.0000           -0.4127040             -11.2302
        26        2.0000           -0.3942542             -10.7282
        27        2.0000           -0.3732909             -10.1578
        28        2.0000           -0.3718465             -10.1185
        29        2.0000           -0.3380007              -9.1975 (HOMO)
        30                         -0.2380137              -6.4767 (LUMO)
        31                         -0.2229515              -6.0668
        32                         -0.2068493              -5.6287
        33                         -0.1455595              -3.9609
        34                         -0.0720056              -1.9594
        35                         -0.0521499              -1.4191
        36                         -0.0478971              -1.3033
        37                          0.0324193               0.8822
        38                          0.0960520               2.6137
        39                          0.1187010               3.2300
        40                          0.1329162               3.6168
       ...                                ...                  ...
        57                          0.6864546              18.6794
      -------------------------------------------------------------
                  HL-Gap            0.0999870 Eh            2.7208 eV

     #   Z          covCN         q      C6AA      α(0)
     1   6 C        2.862     0.136    25.018     8.199
     2   6 C        2.917    -0.074    29.858     8.961
     3   6 C        2.920    -0.038    28.942     8.822
     4   6 C        2.922    -0.052    29.279     8.874
     5   6 C        2.974    -0.007    28.200     8.711
     6   6 C        2.927    -0.061    29.509     8.909
     7   1 H        0.925     0.048     2.345     2.395
     8   1 H        0.926     0.041     2.441     2.443
     9   1 H        0.926     0.040     2.443     2.444
    10   1 H        0.926     0.038     2.477     2.461
    11   8 O        1.705    -0.295    18.903     5.870
    12   6 C        3.641     0.025    20.511     6.512
    13   1 H        0.924     0.048     2.345     2.395
    14   1 H        0.925     0.074     2.045     2.236
    15   1 H        0.924     0.048     2.343     2.394
    16   6 C        2.903     0.153    24.693     8.148
    17   6 C        2.842    -0.165    32.269     9.310
    18   1 H        0.926     0.019     2.753     2.595
    19   3 Li       0.744     0.615    42.151    21.055
    20   1 H        0.926     0.018     2.759     2.597
    21   8 O        1.519    -0.611    25.546     6.817

Wiberg/Mayer (AO) data.
largest (>0.10) Wiberg bond orders for each atom

     #   Z sym  total        # sym  WBO       # sym  WBO       # sym  WBO
 ---------------------------------------------------------------------------
     1   6 C    3.934 --     2 C    1.378     6 C    1.361    11 O    1.049
     2   6 C    3.985 --     3 C    1.422     1 C    1.378     8 H    0.966
     3   6 C    3.991 --     4 C    1.465     2 C    1.422     9 H    0.970
                             6 C    0.104
     4   6 C    3.990 --     3 C    1.465     5 C    1.367    10 H    0.968
     5   6 C    3.986 --     6 C    1.422     4 C    1.367    16 C    1.014
     6   6 C    3.988 --     5 C    1.422     1 C    1.361     7 H    0.951
                             3 C    0.104
     7   1 H    0.998 --     6 C    0.951
     8   1 H    0.998 --     2 C    0.966
     9   1 H    0.998 --     3 C    0.970
    10   1 H    0.998 --     4 C    0.968
    11   8 O    2.206 --     1 C    1.049    12 C    0.979
    12   6 C    3.939 --    11 O    0.979    14 H    0.978    13 H    0.977
                            15 H    0.977
    13   1 H    0.998 --    12 C    0.977
    14   1 H    0.994 --    12 C    0.978
    15   1 H    0.998 --    12 C    0.977
    16   6 C    3.952 --    17 C    1.745    21 O    1.146     5 C    1.014
    17   6 C    3.960 --    16 C    1.745    20 H    0.978    18 H    0.973
                            21 O    0.145
    18   1 H    0.999 --    17 C    0.973
    19   3 Li   0.715 --    21 O    0.631
    20   1 H    1.000 --    17 C    0.978
    21   8 O    1.980 --    16 C    1.146    19 Li   0.631    17 C    0.145
 ---------------------------------------------------------------------------

molecular dipole:
                 x           y           z       tot (Debye)
 q only:       -0.435       1.580       0.856
   full:       -0.458       1.912       1.035       5.648

           -------------------------------------------------
          | TOTAL ENERGY              -32.301377521397 Eh   |
          | GRADIENT NORM               0.000680546548 Eh/α |
          | HOMO-LUMO GAP               2.720785987178 eV   |
           -------------------------------------------------

 * finished run on 2022/03/02 at 09:59:57.038
