                         Program Version 5.0.2 -  RELEASE  -
|  1> ! PW6B95 D3BJ def2-QZVP RIJK def2/JK tightSCF CPCM(THF)
|  2> ! sp Pal2
|  3>
|  4> * xyz 0 1
|  5>   H   -1.56206193365724      2.17435577407419      0.00000000000000
|  6>   Cl  -0.74079665614276      1.18095278562581      0.00000000000000
|  7> *
|  8>
|  9>                          ****END OF INPUT****

CARTESIAN COORDINATES (ANGSTROEM)
---------------------------------
  H     -1.562062    2.174356    0.000000
  Cl    -0.740797    1.180953    0.000000

 Total Charge           Charge          ....    0
 Multiplicity           Mult            ....    1
 Number of Electrons    NEL             ....   18
 Basis Dimension        Dim             ....  100

ORBITAL ENERGIES
----------------

  NO   OCC          E(Eh)            E(eV)
   0   2.0000    -101.934951     -2773.7910
   1   2.0000      -9.577135      -260.6071
   2   2.0000      -7.310358      -198.9250
   3   2.0000      -7.303071      -198.7267
   4   2.0000      -7.303071      -198.7267
   5   2.0000      -0.866311       -23.5735
   6   2.0000      -0.483316       -13.1517
   7   2.0000      -0.350312        -9.5325
   8   2.0000      -0.350309        -9.5324
   9   0.0000       0.012497         0.3401
  10   0.0000       0.125262         3.4086
  11   0.0000       0.187286         5.0963
  12   0.0000       0.190539         5.1848
  13   0.0000       0.190551         5.1851

MULLIKEN ATOMIC CHARGES
-----------------------
   0 H :    0.215909
   1 Cl:   -0.215909
Sum of atomic charges:   -0.0000000

LOEWDIN ATOMIC CHARGES
----------------------
   0 H :   -0.342561
   1 Cl:    0.342561

  Mayer bond orders larger than 0.100000
B(  0-H ,  1-Cl) :   1.0048

Dispersion correction           -0.000136719
FINAL SINGLE POINT ENERGY      -461.191834739356

DIPOLE MOMENT
-------------
                                X             Y             Z
Electronic contribution:      0.41446      -0.50121       0.00000
Nuclear contribution   :     -0.77967       0.94308       0.00000
                        -----------------------------------------
Total Dipole Moment    :     -0.36520       0.44187       0.00000
                        -----------------------------------------
Magnitude (a.u.)       :      0.57326
Magnitude (Debye)      :      1.45711

Rotational constants in cm-1:     0.000000    10.352782    10.352782
Rotational constants in MHz :     0.000000 310368.583997 310368.583997

                             ****ORCA TERMINATED NORMALLY****
TOTAL RUN TIME: 0 days 0 hours 0 minutes 8 seconds 234 msec
