                         Program Version 5.0.2 -  RELEASE  -
|  1> ! TPSS D3BJ def2-TZVP RI def2/J CPCM(THF)
|  2> ! Opt numfreq Pal2
|  3>
|  4> * xyz 0 1
|  5> H       -1.5674431400      2.1808648846      0.0000000000
|  6> Cl      -0.7354154498      1.1744436751      0.0000000000
|  7> *
|  8>
|  9>                          ****END OF INPUT****
 Total Charge           Charge          ....    0
 Multiplicity           Mult            ....    1
 Number of Electrons    NEL             ....   18
Dispersion correction           -0.000393780
FINAL SINGLE POINT ENERGY      -460.842289458975
Dispersion correction            ... done
Dispersion correction           -0.000393790
FINAL SINGLE POINT ENERGY      -460.842436104322
Dispersion correction            ... done
Dispersion correction           -0.000393793
FINAL SINGLE POINT ENERGY      -460.842441998083
Dispersion correction            ... done
                    ***********************HURRAY********************

CARTESIAN COORDINATES (ANGSTROEM)
---------------------------------
  H     -1.562062    2.174356    0.000000
  Cl    -0.740797    1.180953    0.000000

 Multiplicity           Mult            ....    1
 Number of Electrons    NEL             ....   18
 Basis Dimension        Dim             ....   43

ORBITAL ENERGIES
----------------

  NO   OCC          E(Eh)            E(eV)
   0   2.0000    -100.994838     -2748.2092
   1   2.0000      -9.245884      -251.5933
   2   2.0000      -7.024737      -191.1528
   3   2.0000      -7.015324      -190.8967
   4   2.0000      -7.015323      -190.8967
   5   2.0000      -0.781491       -21.2655
   6   2.0000      -0.429087       -11.6761
   7   2.0000      -0.295088        -8.0298
   8   2.0000      -0.295084        -8.0296
   9   0.0000      -0.002467        -0.0671
  10   0.0000       0.169116         4.6019
  11   0.0000       0.327998         8.9253
  12   0.0000       0.328009         8.9256
  13   0.0000       0.333980         9.0881

MULLIKEN ATOMIC CHARGES
-----------------------
   0 H :    0.287621
   1 Cl:   -0.287621
Sum of atomic charges:   -0.0000000

LOEWDIN ATOMIC CHARGES
----------------------
   0 H :    0.074503
   1 Cl:   -0.074503

  Mayer bond orders larger than 0.100000
B(  0-H ,  1-Cl) :   0.9267

Dispersion correction           -0.000393793
FINAL SINGLE POINT ENERGY      -460.842442011855

DIPOLE MOMENT
-------------
                                X             Y             Z
Electronic contribution:      0.39542      -0.47818      -0.00000
Nuclear contribution   :     -0.77967       0.94308       0.00000
                        -----------------------------------------
Total Dipole Moment    :     -0.38424       0.46491      -0.00000
                        -----------------------------------------
Magnitude (a.u.)       :      0.60314
Magnitude (Debye)      :      1.53306

VIBRATIONAL FREQUENCIES
-----------------------

Scaling factor for frequencies =  1.000000000 (already applied!)

   0:         0.00 cm**-1
   1:         0.00 cm**-1
   2:         0.00 cm**-1
   3:         0.00 cm**-1
   4:         0.00 cm**-1
   5:      2884.67 cm**-1

IR SPECTRUM
-----------

 Mode   freq       eps      Int      T**2         TX        TY        TZ
       cm**-1   L/(mol*cm) km/mol    a.u.
----------------------------------------------------------------------------
  5:   2884.67   0.016848   85.14  0.001823  ( 0.027238 -0.032874 -0.000000)

--------------------------
THERMOCHEMISTRY AT 298.15K
--------------------------

Temperature         ... 298.15 K
Pressure            ... 1.00 atm
Total Mass          ... 36.46 AMU
The molecule is recognized as being linear

Throughout the following assumptions are being made:
  (1) The electronic state is orbitally nondegenerate
  (2) There are no thermally accessible electronically excited states
  (3) Hindered rotations indicated by low frequency modes are not
      treated as such but are treated as vibrations and this may
      cause some error
  (4) All equations used are the standard statistical mechanics
      equations for an ideal gas
  (5) All vibrations are strictly harmonic

freq.    2884.67  E(vib)   ...       0.00

------------
INNER ENERGY
------------

The inner energy is: U= E(el) + E(ZPE) + E(vib) + E(rot) + E(trans)
    E(el)   - is the total energy from the electronic structure calculation
              = E(kin-el) + E(nuc-el) + E(el-el) + E(nuc-nuc)
    E(ZPE)  - the the zero temperature vibrational energy from the frequency calculation
    E(vib)  - the the finite temperature correction to E(ZPE) due to population
              of excited vibrational states
    E(rot)  - is the rotational thermal energy
    E(trans)- is the translational thermal energy

Summary of contributions to the inner energy U:
Electronic energy                ...   -460.84244201 Eh
Zero point energy                ...      0.00657176 Eh       4.12 kcal/mol
Thermal vibrational correction   ...      0.00000001 Eh       0.00 kcal/mol
Thermal rotational correction    ...      0.00094418 Eh       0.59 kcal/mol
Thermal translational correction ...      0.00141627 Eh       0.89 kcal/mol
-----------------------------------------------------------------------
Total thermal energy                   -460.83350979 Eh

Summary of corrections to the electronic energy:
(perhaps to be used in another calculation)
Total thermal correction                  0.00236046 Eh       1.48 kcal/mol
Non-thermal (ZPE) correction              0.00657176 Eh       4.12 kcal/mol
-----------------------------------------------------------------------
Total correction                          0.00893223 Eh       5.61 kcal/mol

--------
ENTHALPY
--------

The enthalpy is H = U + kB*T
                kB is Boltzmann's constant
Total free energy                 ...   -460.83350979 Eh
Thermal Enthalpy correction       ...      0.00094421 Eh       0.59 kcal/mol
-----------------------------------------------------------------------
Total Enthalpy                    ...   -460.83256558 Eh

Note: Rotational entropy computed according to Herzberg
Infrared and Raman Spectra, Chapter V,1, Van Nostrand Reinhold, 1945
Point Group:  Cinfv, Symmetry Number:   1
Rotational constants in cm-1:     0.000000    10.352782    10.352782

Vibrational entropy computed according to the QRRHO of S. Grimme
Chem.Eur.J. 2012 18 9955

-------
ENTROPY
-------

The entropy contributions are T*S = T*(S(el)+S(vib)+S(rot)+S(trans))
     S(el)   - electronic entropy
     S(vib)  - vibrational entropy
     S(rot)  - rotational entropy
     S(trans)- translational entropy
The entropies will be listed as multiplied by the temperature to get
units of energy

Electronic entropy                ...      0.00000000 Eh      0.00 kcal/mol
Vibrational entropy               ...      0.00000001 Eh      0.00 kcal/mol
Rotational entropy                ...      0.00377347 Eh      2.37 kcal/mol
Translational entropy             ...      0.01744233 Eh     10.95 kcal/mol
-----------------------------------------------------------------------
Final entropy term                ...      0.02121581 Eh     13.31 kcal/mol

-------------------
GIBBS FREE ENERGY
-------------------

The Gibbs free energy is G = H - T*S

Total enthalpy                    ...   -460.83256558 Eh
Total entropy correction          ...     -0.02121581 Eh    -13.31 kcal/mol
-----------------------------------------------------------------------
Final Gibbs free energy         ...   -460.85378139 Eh

For completeness - the Gibbs free energy minus the electronic energy
G-E(el)                           ...     -0.01133938 Eh     -7.12 kcal/mol

                             ****ORCA TERMINATED NORMALLY****
TOTAL RUN TIME: 0 days 0 hours 1 minutes 4 seconds 625 msec
