   * xtb version 6.4.1 (afa7bdf) compiled by 'ehlert@majestix' on 2021-06-10
          program call               : xtb Li-Aldol.xyz --opt --alpb thf
          number of atoms            :                    39
          number of electrons        :                   118
          charge                     :                     0

   ID    Z sym.   atoms
    1    6 C      1-6, 11, 13, 17, 19, 23-29, 32
    2    1 H      7-10, 14-16, 20, 33-39
    3    8 O      12, 18, 21, 30, 31
    4    3 Li     22

        Solvent                        thf
        Solvent mass                       7.2106E+01 g/mol
          :  Hamiltonian                  GFN2-xTB          :
 * total energy  :   -66.8536526 Eh     change       -0.7734826E-09 Eh
 * total energy  :   -66.8736978 Eh     change       -0.2004522E-01 Eh
 * total energy  :   -66.8840502 Eh     change       -0.1035243E-01 Eh
 * total energy  :   -66.8860384 Eh     change       -0.1988224E-02 Eh
 * total energy  :   -66.8867809 Eh     change       -0.7424869E-03 Eh
 * total energy  :   -66.8869392 Eh     change       -0.1582959E-03 Eh
 * total energy  :   -66.8870156 Eh     change       -0.7640293E-04 Eh
 * total energy  :   -66.8870782 Eh     change       -0.6259242E-04 Eh
 * total energy  :   -66.8871101 Eh     change       -0.3184389E-04 Eh
 * total energy  :   -66.8871460 Eh     change       -0.3594629E-04 Eh
 * total energy  :   -66.8948185 Eh     change       -0.3485231E-04 Eh
 * total energy  :   -66.8948477 Eh     change       -0.2913061E-04 Eh
 * total energy  :   -66.8948786 Eh     change       -0.3094382E-04 Eh
 * total energy  :   -66.8948921 Eh     change       -0.1345396E-04 Eh
 * total energy  :   -66.8949117 Eh     change       -0.1967247E-04 Eh
 * total energy  :   -66.8949231 Eh     change       -0.1138832E-04 Eh
 * total energy  :   -66.8949310 Eh     change       -0.7835874E-05 Eh
 * total energy  :   -66.8949397 Eh     change       -0.8712956E-05 Eh
 * total energy  :   -66.8949430 Eh     change       -0.3305900E-05 Eh
   *** GEOMETRY OPTIMIZATION CONVERGED AFTER 62 ITERATIONS ***

 final structure:
================
39
 xtb: 6.4.1 (afa7bdf)
C         3.12261137633848   -1.64429902283903   -1.28680344581679
C         3.10217837118474   -2.21117176639674   -2.55676027824433
C         4.01405640643394   -3.20757782499520   -2.87025164118022
C         4.94340984625074   -3.64950949084645   -1.94995571960240
C         4.97558542092251   -3.09021727314351   -0.67026723523622
C         4.05902212848912   -2.09257078582106   -0.35840761325561
H         4.07184638131760   -1.65186150179527    0.62597406410564
H         2.39137258186824   -1.89185811522384   -3.30168608743992
H         3.99282042293148   -3.64378258002584   -3.85784359739595
H         5.63154789622944   -4.42617552416514   -2.23728436226995
C         5.93598645828659   -3.49063391910016    0.39848488985162
O         2.28542893702524   -0.66059082512593   -0.85537993500032
C         1.32870035229714   -0.13974481108049   -1.75656014440308
H         1.80956447488891    0.30594690550021   -2.63228946459673
H         0.79897156121652    0.63155435029816   -1.20081229491657
H         0.62108344517879   -0.91067085946092   -2.07601442875263
C         6.92139143757565   -4.45351782228923    0.13913531106751
O         5.81852850321702   -2.92244322255634    1.52459175283494
C         7.86809012287017   -4.84429867099779    1.08783317238561
H         6.98400708661493   -4.89662987960429   -0.83790088708821
O         7.95931969536939   -4.36946735553455    2.25784121782401
Li        6.85407239342838   -3.18478987279504    2.89668654757085
C         8.87290621620347   -5.87552066892669    0.69343750555499
C         8.54636957356245   -6.95835811204751   -0.11932182346107
C        10.17001527155490   -5.77093860387293    1.19188337556986
C        11.13018635225259   -6.70617248375816    0.86081518873868
C        10.80891450762669   -7.76624582034667    0.01631831318879
C         9.50511834307947   -7.89582069193442   -0.45610825150746
C        11.85215927565325   -8.79724090190134   -0.26460846037589
O        12.17059799677313   -9.09182253072566   -1.52627618788246
O        12.42742362933457   -9.37647338061946    0.62947075762622
C        11.64041757005184   -8.37321109110801   -2.63663423684416
H        10.77137228035662   -8.89958045396402   -3.03453777408412
H        12.43136243735660   -8.36270421501007   -3.38525065771814
H        11.36665571193406   -7.35394085567343   -2.36344295381323
H         9.23252470186647   -8.74453961231292   -1.06499729914523
H         7.53399740536736   -7.08257144536809   -0.46992382799391
H        12.13396714140900   -6.62701496379786    1.24959633632316
H        10.40923603858433   -4.94474772323438    1.84360275718257

          :  Hamiltonian                  GFN2-xTB          :
         :: total energy             -66.894942984005 Eh    ::
         :: gradient norm              0.000938366973 Eh/a0 ::
         :: HOMO-LUMO gap              2.508650415046 eV    ::
         :: SCC energy               -67.811890783422 Eh    ::
         :: -> dispersion             -0.040305309909 Eh    ::
         :: -> Gsolv                  -0.048875864983 Eh    ::
         :: repulsion energy           0.917294043973 Eh    ::

    * Orbital Energies and Occupations

         #    Occupation            Energy/Eh            Energy/eV
      -------------------------------------------------------------
         1        2.0000           -0.7498628             -20.4048
       ...           ...                  ...                  ...
        47        2.0000           -0.4501745             -12.2499
        48        2.0000           -0.4492438             -12.2245
        49        2.0000           -0.4442843             -12.0896
        50        2.0000           -0.4358633             -11.8604
        51        2.0000           -0.4254695             -11.5776
        52        2.0000           -0.4244593             -11.5501
        53        2.0000           -0.4221947             -11.4885
        54        2.0000           -0.4142473             -11.2722
        55        2.0000           -0.4108290             -11.1792
        56        2.0000           -0.4094983             -11.1430
        57        2.0000           -0.3851146             -10.4795
        58        2.0000           -0.3787505             -10.3063
        59        2.0000           -0.3783881             -10.2965 (HOMO)
        60                         -0.2861969              -7.7878 (LUMO)
        61                         -0.2597294              -7.0676
        62                         -0.2396327              -6.5207
        63                         -0.2277993              -6.1987
        64                         -0.2203698              -5.9966
        65                         -0.1992450              -5.4217
        66                         -0.1952473              -5.3130
        67                         -0.1471523              -4.0042
        68                         -0.1010528              -2.7498
        69                         -0.0781195              -2.1257
        70                         -0.0203267              -0.5531
       ...                                ...                  ...
       111                          0.6763378              18.4041
      -------------------------------------------------------------
                  HL-Gap            0.0921912 Eh            2.5087 eV

     #   Z          covCN         q      C6AA      α(0)
     1   6 C        2.861     0.143    24.884     8.177
     2   6 C        2.917    -0.067    29.659     8.931
     3   6 C        2.919    -0.036    28.898     8.815
     4   6 C        2.919    -0.047    29.177     8.858
     5   6 C        2.969    -0.011    28.292     8.725
     6   6 C        2.930    -0.053    29.307     8.878
     7   1 H        0.926     0.067     2.118     2.276
     8   1 H        0.926     0.052     2.295     2.369
     9   1 H        0.926     0.053     2.284     2.363
    10   1 H        0.926     0.048     2.347     2.395
    11   6 C        3.116     0.199    23.646     7.965
    12   8 O        1.705    -0.285    18.737     5.844
    13   6 C        3.642     0.021    20.580     6.523
    14   1 H        0.924     0.052     2.296     2.370
    15   1 H        0.925     0.078     2.003     2.213
    16   1 H        0.924     0.052     2.297     2.370
    17   6 C        2.927    -0.152    31.916     9.265
    18   8 O        1.520    -0.507    23.151     6.490
    19   6 C        3.142     0.196    23.615     7.952
    20   1 H        0.926     0.052     2.296     2.370
    21   8 O        1.519    -0.507    23.154     6.490
    22   3 Li       1.953     0.629    31.770    17.047
    23   6 C        2.974    -0.001    28.044     8.687
    24   6 C        2.921    -0.033    28.825     8.804
    25   6 C        2.924    -0.023    28.573     8.766
    26   6 C        2.921    -0.024    28.612     8.772
    27   6 C        2.970    -0.023    28.579     8.769
    28   6 C        2.919    -0.028    28.709     8.786
    29   6 C        2.708     0.356    20.962     7.494
    30   8 O        1.703    -0.258    18.269     5.771
    31   8 O        0.857    -0.435    22.391     6.344
    32   6 C        3.635     0.002    20.928     6.583
    33   1 H        0.924     0.082     1.958     2.188
    34   1 H        0.925     0.100     1.785     2.089
    35   1 H        0.925     0.070     2.088     2.260
    36   1 H        0.926     0.057     2.239     2.340
    37   1 H        0.926     0.062     2.179     2.308
    38   1 H        0.926     0.056     2.242     2.342
    39   1 H        0.926     0.065     2.143     2.289

Wiberg/Mayer (AO) data.
largest (>0.10) Wiberg bond orders for each atom

     #   Z sym  total        # sym  WBO       # sym  WBO       # sym  WBO
 ---------------------------------------------------------------------------
     1   6 C    3.936 --     2 C    1.370     6 C    1.361    12 O    1.064
     2   6 C    3.980 --     3 C    1.426     1 C    1.370     8 H    0.965
     3   6 C    3.990 --     4 C    1.463     2 C    1.426     9 H    0.969
                             6 C    0.103
     4   6 C    3.990 --     3 C    1.463     5 C    1.364    10 H    0.962
     5   6 C    3.986 --     6 C    1.412     4 C    1.364    11 C    1.022
     6   6 C    3.987 --     5 C    1.412     1 C    1.361     7 H    0.961
                             3 C    0.103
     7   1 H    0.995 --     6 C    0.961
     8   1 H    0.997 --     2 C    0.965
     9   1 H    0.997 --     3 C    0.969
    10   1 H    0.997 --     4 C    0.962
    11   6 C    3.935 --    18 O    1.441    17 C    1.331     5 C    1.022
    12   8 O    2.223 --     1 C    1.064    13 C    0.975
    13   6 C    3.935 --    15 H    0.978    14 H    0.977    16 H    0.977
                            12 O    0.975
    14   1 H    0.997 --    13 C    0.977
    15   1 H    0.994 --    13 C    0.978
    16   1 H    0.997 --    13 C    0.977
    17   6 C    3.959 --    19 C    1.359    11 C    1.331    20 H    0.958
                            21 O    0.106
    18   8 O    2.056 --    11 C    1.441    22 Li   0.331
    19   6 C    3.939 --    21 O    1.437    17 C    1.359    23 C    1.004
    20   1 H    0.997 --    17 C    0.958
    21   8 O    2.053 --    19 C    1.437    22 Li   0.328    17 C    0.106
    22   3 Li   0.694 --    18 O    0.331    21 O    0.328
    23   6 C    3.987 --    24 C    1.390    25 C    1.389    19 C    1.004
                            27 C    0.101
    24   6 C    3.989 --    28 C    1.455    23 C    1.390    37 H    0.964
                            26 C    0.106
    25   6 C    3.988 --    26 C    1.458    23 C    1.389    39 H    0.964
                            28 C    0.105
    26   6 C    3.989 --    25 C    1.458    27 C    1.390    38 H    0.967
                            24 C    0.106
    27   6 C    3.981 --    26 C    1.390    28 C    1.390    29 C    0.975
                            23 C    0.101
    28   6 C    3.989 --    24 C    1.455    27 C    1.390    36 H    0.967
                            25 C    0.105
    29   6 C    3.909 --    31 O    1.714    30 O    1.146    27 C    0.975
    30   8 O    2.324 --    29 C    1.146    32 C    0.946    31 O    0.165
    31   8 O    2.014 --    29 C    1.714    30 O    0.165
    32   6 C    3.905 --    35 H    0.975    34 H    0.973    33 H    0.973
                            30 O    0.946
    33   1 H    0.993 --    32 C    0.973
    34   1 H    0.990 --    32 C    0.973
    35   1 H    0.995 --    32 C    0.975
    36   1 H    0.996 --    28 C    0.967
    37   1 H    0.995 --    24 C    0.964
    38   1 H    0.996 --    26 C    0.967
    39   1 H    0.995 --    25 C    0.964
 ---------------------------------------------------------------------------

molecular dipole:
                 x           y           z       tot (Debye)
 q only:       -1.792       1.711      -1.688
   full:       -1.944       1.859      -1.668       8.046

           -------------------------------------------------
          | TOTAL ENERGY              -66.894942984005 Eh   |
          | GRADIENT NORM               0.000938366973 Eh/α |
          | HOMO-LUMO GAP               2.508650415046 eV   |
           -------------------------------------------------

 * finished run on 2022/02/25 at 08:10:40.231
