                         Program Version 5.0.2 -  RELEASE  -
|  1> ! PW6B95 D3BJ def2-QZVP RIJK def2/JK tightSCF CPCM(THF)
|  2> ! sp Pal8
|  3>
|  4> * xyz 0 1
|  5> C   -4.00703908942669      2.98959946358312     -0.38459550498393
|  6>   C   -3.84151355148400      1.70370753564122     -0.92066225686100
|  7>   C   -2.81314476662004      0.88652829928282     -0.44376920923899
|  8>   C   -1.94342431596653      1.33352609606963      0.54559501236399
|  9>   C   -2.11446093664613      2.62039448473880      1.08546838691802
| 10>   C   -3.14805234750211      3.43852598979951      0.62189055448849
| 11>   O   -4.97340998328946      3.86959248929326     -0.78445244332913
| 12>   C   -5.86444826436729      3.44220682388354     -1.83078707557476
| 13>   H   -5.30640304174476      3.22322098138493     -2.74807605360848
| 14>   H   -6.53931659031157      4.28188178865780     -1.99504978622229
| 15>   H   -6.43271004405669      2.55850712410195     -1.51958567441967
| 16>   C   -1.21005565473249      3.16374015208010      2.14108635971649
| 17>   C   0.15453488680885      2.52723290239889      2.33113163117573
| 18>   C   1.05704173604713      2.68614111915292      1.07350262986448
| 19>   H   0.05025120913164      1.45774089896944      2.54964963203045
| 20>   H   0.62184619045417      3.01114851060505      3.19316707736927
| 21>   H   -3.27460535806305      4.43359126650306      1.03641693527299
| 22>   H   -4.49889115437493      1.33554064967513     -1.69994441154997
| 23>   H   -2.69569418589232     -0.11005856190358     -0.85945700360222
| 24>   H   -1.15368690506671      0.68256174476640      0.90420038904117
| 25>   C   1.06112389843160      4.12490859163126      0.59303509450474
| 26>   O   -1.54165976910885      4.13960856624557      2.81362861097783
| 27>   C   2.46250526314452      2.16463756875441      1.39739899665407
| 28>   H   0.64163041995065      2.07524528661284      0.26798869200108
| 29>   C   3.34999047205592      2.03030390036687      0.16988085301211
| 30>   H   2.39155638507327      1.17045089155403      1.86164823529169
| 31>   H   2.95185101161798      2.80560530811556      2.13872302070754
| 32>   C   1.65430828626589      5.14554542677757      1.34860049720966
| 33>   C   0.41774767742045      4.46341677750139     -0.60424092363662
| 34>   C   0.36917916821292      5.78252692503126     -1.04005634384806
| 35>   C   0.96730719891426      6.79769347161033     -0.28158325356651
| 36>   C   1.61252784947295      6.46802356702018      0.91977851171162
| 37>   C   0.89010928862113      8.19187650998476     -0.78461007167458
| 38>   O   0.34232381353206      8.52725902822666     -1.82607290732484
| 39>   O   1.49842797385070      9.07565127340380      0.04104185317906
| 40>   C   1.45538318170872     10.45937791832496     -0.39625201854632
| 41>   H   1.97616893731397     11.01666160933440      0.38105559104061
| 42>   H   0.41794455678570     10.78854485240329     -0.48678482872709
| 43>   H   1.96307743524687     10.56096616325051     -1.35797736503834
| 44>   C   4.80411561472286      1.75381636498915      0.37468408278116
| 45>   O   2.87967744935223      2.12743936537305     -0.96187151635845
| 46>   C   5.35504538949384      1.55584759513001      1.65332079742018
| 47>   C   5.62615481885125      1.68684669349002     -0.75427109544107
| 48>   C   6.71544559729276      1.29320428395090      1.77834897514500
| 49>   C   7.54359137655334      1.22983918108885      0.65458130089234
| 50>   C   6.99281282336031      1.42875023764570     -0.62032665974711
| 51>   H   5.19837328007928      1.83933573927180     -1.74000639721206
| 52>   H   4.73248837375498      1.59913306777880      2.53981140509764
| 53>   H   7.14854573572996      1.13559637026399      2.76195173180431
| 54>   H   8.60133290871251      1.02844365229797      0.77966224040864
| 55>   O   7.71183023755837      1.38895748616584     -1.78198761334934
| 56>   C   9.12453134155479      1.13433772117688     -1.67673504824581
| 57>   H   9.61522506844454      1.91485040552843     -1.08461445015077
| 58>   H   9.49728695315826      1.15182506412916     -2.70058972256501
| 59>   H   9.30923573514458      0.15247915558060     -1.22653572310550
| 60>   H   -0.04551571067249      3.67915486133161     -1.19631852808313
| 61>   H   -0.12840125078327      6.04154816981490     -1.96924896242298
| 62>   H   2.14880768749708      4.90893780117787      2.28701351694601
| 63>   H   2.07524568878691      7.24722338898047      1.51523023340762
| 64> *
| 65>
| 66>                          ****END OF INPUT****

CARTESIAN COORDINATES (ANGSTROEM)
---------------------------------
  C     -4.007039    2.989599   -0.384596
  C     -3.841514    1.703708   -0.920662
  C     -2.813145    0.886528   -0.443769
  C     -1.943424    1.333526    0.545595
  C     -2.114461    2.620394    1.085468
  C     -3.148052    3.438526    0.621891
  O     -4.973410    3.869592   -0.784452
  C     -5.864448    3.442207   -1.830787
  H     -5.306403    3.223221   -2.748076
  H     -6.539317    4.281882   -1.995050
  H     -6.432710    2.558507   -1.519586
  C     -1.210056    3.163740    2.141086
  C      0.154535    2.527233    2.331132
  C      1.057042    2.686141    1.073503
  H      0.050251    1.457741    2.549650
  H      0.621846    3.011149    3.193167
  H     -3.274605    4.433591    1.036417
  H     -4.498891    1.335541   -1.699944
  H     -2.695694   -0.110059   -0.859457
  H     -1.153687    0.682562    0.904200
  C      1.061124    4.124909    0.593035
  O     -1.541660    4.139609    2.813629
  C      2.462505    2.164638    1.397399
  H      0.641630    2.075245    0.267989
  C      3.349990    2.030304    0.169881
  H      2.391556    1.170451    1.861648
  H      2.951851    2.805605    2.138723
  C      1.654308    5.145545    1.348600
  C      0.417748    4.463417   -0.604241
  C      0.369179    5.782527   -1.040056
  C      0.967307    6.797693   -0.281583
  C      1.612528    6.468024    0.919779
  C      0.890109    8.191877   -0.784610
  O      0.342324    8.527259   -1.826073
  O      1.498428    9.075651    0.041042
  C      1.455383   10.459378   -0.396252
  H      1.976169   11.016662    0.381056
  H      0.417945   10.788545   -0.486785
  H      1.963077   10.560966   -1.357977
  C      4.804116    1.753816    0.374684
  O      2.879677    2.127439   -0.961872
  C      5.355045    1.555848    1.653321
  C      5.626155    1.686847   -0.754271
  C      6.715446    1.293204    1.778349
  C      7.543591    1.229839    0.654581
  C      6.992813    1.428750   -0.620327
  H      5.198373    1.839336   -1.740006
  H      4.732488    1.599133    2.539811
  H      7.148546    1.135596    2.761952
  H      8.601333    1.028444    0.779662
  O      7.711830    1.388957   -1.781988
  C      9.124531    1.134338   -1.676735
  H      9.615225    1.914850   -1.084614
  H      9.497287    1.151825   -2.700590
  H      9.309236    0.152479   -1.226536
  H     -0.045516    3.679155   -1.196319
  H     -0.128401    6.041548   -1.969249
  H      2.148808    4.908938    2.287014
  H      2.075246    7.247223    1.515230

 Total Charge           Charge          ....    0
 Multiplicity           Mult            ....    1
 Number of Electrons    NEL             ....  236
 Basis Dimension        Dim             .... 2661

ORBITAL ENERGIES
----------------

  NO   OCC          E(Eh)            E(eV)
   0   2.0000     -19.344191      -526.3822
   1   2.0000     -19.332910      -526.0752
   2   2.0000     -19.332092      -526.0530
   3   2.0000     -19.293666      -525.0074
   4   2.0000     -19.292562      -524.9773
   5   2.0000     -19.287793      -524.8475
   6   2.0000     -10.433737      -283.9164
   7   2.0000     -10.397929      -282.9420
   8   2.0000     -10.395865      -282.8859
   9   2.0000     -10.371863      -282.2327
  10   2.0000     -10.370992      -282.2090
  11   2.0000     -10.346294      -281.5370
  12   2.0000     -10.345484      -281.5149
  13   2.0000     -10.345407      -281.5128
  14   2.0000     -10.322389      -280.8865
  15   2.0000     -10.321093      -280.8512
  16   2.0000     -10.320829      -280.8440
  17   2.0000     -10.320222      -280.8275
  18   2.0000     -10.320056      -280.8230
  19   2.0000     -10.313147      -280.6350
  20   2.0000     -10.313128      -280.6345
  21   2.0000     -10.312528      -280.6181
  22   2.0000     -10.312282      -280.6114
  23   2.0000     -10.311595      -280.5928
  24   2.0000     -10.311261      -280.5837
  25   2.0000     -10.311164      -280.5810
  26   2.0000     -10.309940      -280.5477
  27   2.0000     -10.309424      -280.5337
  28   2.0000     -10.309077      -280.5243
  29   2.0000     -10.308995      -280.5220
  30   2.0000     -10.308349      -280.5044
  31   2.0000     -10.307063      -280.4695
  32   2.0000     -10.305577      -280.4290
  33   2.0000      -1.135223       -30.8910
  34   2.0000      -1.098703       -29.8972
  35   2.0000      -1.097855       -29.8741
  36   2.0000      -1.077754       -29.3272
  37   2.0000      -1.075139       -29.2560
  38   2.0000      -1.047482       -28.5034
  39   2.0000      -0.900296       -24.4983
  40   2.0000      -0.892224       -24.2786
  41   2.0000      -0.891448       -24.2575
  42   2.0000      -0.853183       -23.2163
  43   2.0000      -0.803580       -21.8665
  44   2.0000      -0.799545       -21.7567
  45   2.0000      -0.789762       -21.4905
  46   2.0000      -0.788882       -21.4666
  47   2.0000      -0.784815       -21.3559
  48   2.0000      -0.778360       -21.1803
  49   2.0000      -0.753859       -20.5136
  50   2.0000      -0.742801       -20.2126
  51   2.0000      -0.722650       -19.6643
  52   2.0000      -0.721896       -19.6438
  53   2.0000      -0.687786       -18.7156
  54   2.0000      -0.657566       -17.8933
  55   2.0000      -0.653408       -17.7801
  56   2.0000      -0.639430       -17.3998
  57   2.0000      -0.630231       -17.1495
  58   2.0000      -0.629902       -17.1405
  59   2.0000      -0.614055       -16.7093
  60   2.0000      -0.587653       -15.9909
  61   2.0000      -0.577387       -15.7115
  62   2.0000      -0.573205       -15.5977
  63   2.0000      -0.556937       -15.1550
  64   2.0000      -0.548880       -14.9358
  65   2.0000      -0.537206       -14.6181
  66   2.0000      -0.523666       -14.2497
  67   2.0000      -0.511938       -13.9305
  68   2.0000      -0.510149       -13.8819
  69   2.0000      -0.509305       -13.8589
  70   2.0000      -0.507884       -13.8202
  71   2.0000      -0.503940       -13.7129
  72   2.0000      -0.499891       -13.6027
  73   2.0000      -0.493628       -13.4323
  74   2.0000      -0.490103       -13.3364
  75   2.0000      -0.489282       -13.3140
  76   2.0000      -0.482744       -13.1361
  77   2.0000      -0.475560       -12.9406
  78   2.0000      -0.470695       -12.8083
  79   2.0000      -0.467480       -12.7208
  80   2.0000      -0.461518       -12.5586
  81   2.0000      -0.458914       -12.4877
  82   2.0000      -0.454319       -12.3627
  83   2.0000      -0.451478       -12.2853
  84   2.0000      -0.444387       -12.0924
  85   2.0000      -0.443100       -12.0574
  86   2.0000      -0.433467       -11.7952
  87   2.0000      -0.429841       -11.6966
  88   2.0000      -0.426295       -11.6001
  89   2.0000      -0.421421       -11.4675
  90   2.0000      -0.417756       -11.3677
  91   2.0000      -0.409004       -11.1296
  92   2.0000      -0.405969       -11.0470
  93   2.0000      -0.396791       -10.7972
  94   2.0000      -0.395018       -10.7490
  95   2.0000      -0.390743       -10.6327
  96   2.0000      -0.389281       -10.5929
  97   2.0000      -0.388528       -10.5724
  98   2.0000      -0.384200       -10.4546
  99   2.0000      -0.382095       -10.3973
 100   2.0000      -0.376353       -10.2411
 101   2.0000      -0.372039       -10.1237
 102   2.0000      -0.357416        -9.7258
 103   2.0000      -0.355559        -9.6753
 104   2.0000      -0.353889        -9.6298
 105   2.0000      -0.352449        -9.5906
 106   2.0000      -0.348800        -9.4913
 107   2.0000      -0.344752        -9.3812
 108   2.0000      -0.330555        -8.9949
 109   2.0000      -0.308413        -8.3923
 110   2.0000      -0.290082        -7.8935
 111   2.0000      -0.286593        -7.7986
 112   2.0000      -0.283165        -7.7053
 113   2.0000      -0.281195        -7.6517
 114   2.0000      -0.275075        -7.4852
 115   2.0000      -0.268637        -7.3100
 116   2.0000      -0.251317        -6.8387
 117   2.0000      -0.250236        -6.8093
 118   0.0000      -0.066171        -1.8006
 119   0.0000      -0.062903        -1.7117
 120   0.0000      -0.051719        -1.4074
 121   0.0000      -0.013996        -0.3809
 122   0.0000      -0.009866        -0.2685

MULLIKEN ATOMIC CHARGES
-----------------------
   0 C :    0.108630
   1 C :   -0.092401
   2 C :   -0.184564
   3 C :   -0.081259
   4 C :    0.070109
   5 C :   -0.047280
   6 O :   -0.368054
   7 C :   -0.082020
   8 H :    0.109550
   9 H :    0.132912
  10 H :    0.109457
  11 C :    0.159580
  12 C :   -0.195041
  13 C :   -0.062701
  14 H :    0.120590
  15 H :    0.119401
  16 H :    0.117186
  17 H :    0.119309
  18 H :    0.136103
  19 H :    0.093397
  20 C :    0.208424
  21 O :   -0.385975
  22 C :   -0.086561
  23 H :    0.064742
  24 C :    0.173553
  25 H :    0.129959
  26 H :    0.086604
  27 C :   -0.145601
  28 C :   -0.153867
  29 C :   -0.104799
  30 C :    0.015114
  31 C :   -0.108677
  32 C :    0.360022
  33 O :   -0.431829
  34 O :   -0.353202
  35 C :   -0.085420
  36 H :    0.124034
  37 H :    0.125979
  38 H :    0.125845
  39 C :    0.065336
  40 O :   -0.398426
  41 C :   -0.107131
  42 C :   -0.060675
  43 C :   -0.202534
  44 C :   -0.083004
  45 C :    0.105207
  46 H :    0.115331
  47 H :    0.113749
  48 H :    0.131247
  49 H :    0.120084
  50 O :   -0.367959
  51 C :   -0.083834
  52 H :    0.110929
  53 H :    0.131825
  54 H :    0.110774
  55 H :    0.115205
  56 H :    0.126330
  57 H :    0.092554
  58 H :    0.123742
Sum of atomic charges:    0.0000000

LOEWDIN ATOMIC CHARGES
----------------------
   0 C :   -0.344674
   1 C :    0.076589
   2 C :    0.070722
   3 C :    0.078668
   4 C :   -0.111955
   5 C :    0.103275
   6 O :    0.498522
   7 C :    0.075472
   8 H :   -0.061130
   9 H :   -0.062829
  10 H :   -0.061392
  11 C :   -0.438007
  12 C :    0.132849
  13 C :   -0.030561
  14 H :   -0.026591
  15 H :   -0.028229
  16 H :   -0.043931
  17 H :   -0.054357
  18 H :   -0.049999
  19 H :   -0.049085
  20 C :   -0.071571
  21 O :    0.318678
  22 C :    0.123428
  23 H :   -0.022697
  24 C :   -0.423757
  25 H :   -0.014397
  26 H :   -0.023707
  27 C :    0.096667
  28 C :    0.096500
  29 C :    0.103353
  30 C :   -0.118387
  31 C :    0.099027
  32 C :   -0.741101
  33 O :    0.283862
  34 O :    0.500301
  35 C :    0.096748
  36 H :   -0.065683
  37 H :   -0.062054
  38 H :   -0.062074
  39 C :   -0.107082
  40 O :    0.332032
  41 C :    0.079547
  42 C :    0.103087
  43 C :    0.069716
  44 C :    0.076299
  45 C :   -0.345073
  46 H :   -0.045704
  47 H :   -0.051063
  48 H :   -0.050177
  49 H :   -0.054392
  50 O :    0.497815
  51 C :    0.075404
  52 H :   -0.061221
  53 H :   -0.062910
  54 H :   -0.061298
  55 H :   -0.042389
  56 H :   -0.045359
  57 H :   -0.043566
  58 H :   -0.050157

  Mayer bond orders larger than 0.100000
B(  0-C ,  1-C ) :   1.3332 B(  0-C ,  5-C ) :   1.3187 B(  0-C ,  6-O ) :   1.1316
B(  1-C ,  2-C ) :   1.3579 B(  1-C , 17-H ) :   0.9512 B(  2-C ,  3-C ) :   1.4204
B(  2-C , 18-H ) :   0.9506 B(  3-C ,  4-C ) :   1.2541 B(  3-C , 19-H ) :   0.9491
B(  4-C ,  5-C ) :   1.3004 B(  4-C , 11-C ) :   0.9667 B(  5-C , 16-H ) :   0.9424
B(  6-O ,  7-C ) :   0.8995 B(  7-C ,  8-H ) :   0.9602 B(  7-C ,  9-H ) :   0.9681
B(  7-C , 10-H ) :   0.9610 B( 11-C , 12-C ) :   0.9983 B( 11-C , 21-O ) :   1.9980
B( 12-C , 13-C ) :   1.0160 B( 12-C , 14-H ) :   0.9196 B( 12-C , 15-H ) :   0.9298
B( 13-C , 20-C ) :   0.8711 B( 13-C , 22-C ) :   0.9550 B( 13-C , 23-H ) :   0.9355
B( 20-C , 27-C ) :   1.3206 B( 20-C , 28-C ) :   1.2662 B( 22-C , 24-C ) :   0.9710
B( 22-C , 25-H ) :   0.9205 B( 22-C , 26-H ) :   0.9207 B( 24-C , 39-C ) :   1.0173
B( 24-C , 40-O ) :   1.8873 B( 27-C , 31-C ) :   1.3758 B( 27-C , 57-H ) :   0.9599
B( 28-C , 29-C ) :   1.3694 B( 28-C , 55-H ) :   0.9554 B( 29-C , 30-C ) :   1.2963
B( 29-C , 56-H ) :   0.9445 B( 30-C , 31-C ) :   1.2989 B( 30-C , 32-C ) :   1.0378
B( 31-C , 58-H ) :   0.9479 B( 32-C , 33-O ) :   1.8935 B( 32-C , 34-O ) :   1.1950
B( 34-O , 35-C ) :   0.8532 B( 35-C , 36-H ) :   0.9630 B( 35-C , 37-H ) :   0.9629
B( 35-C , 38-H ) :   0.9633 B( 39-C , 41-C ) :   1.2858 B( 39-C , 42-C ) :   1.3040
B( 41-C , 43-C ) :   1.4162 B( 41-C , 47-H ) :   0.9533 B( 42-C , 45-C ) :   1.3356
B( 42-C , 46-H ) :   0.9388 B( 43-C , 44-C ) :   1.3597 B( 43-C , 48-H ) :   0.9496
B( 44-C , 45-C ) :   1.3256 B( 44-C , 49-H ) :   0.9515 B( 45-C , 50-O ) :   1.1344
B( 50-O , 51-C ) :   0.8983 B( 51-C , 52-H ) :   0.9596 B( 51-C , 53-H ) :   0.9676
B( 51-C , 54-H ) :   0.9602

Dispersion correction           -0.041631831
FINAL SINGLE POINT ENERGY     -1498.467649368188

DIPOLE MOMENT
-------------
                                X             Y             Z
Electronic contribution:     -3.48785       2.83382       1.77550
Nuclear contribution   :      5.41465      -5.26932      -0.98022
                        -----------------------------------------
Total Dipole Moment    :      1.92679      -2.43551       0.79528
                        -----------------------------------------
Magnitude (a.u.)       :      3.20573
Magnitude (Debye)      :      8.14832

Rotational constants in cm-1:     0.004750     0.002176     0.001717
Rotational constants in MHz :   142.414677    65.245420    51.466811

                             ****ORCA TERMINATED NORMALLY****
TOTAL RUN TIME: 0 days 2 hours 22 minutes 21 seconds 47 msec
