                         Program Version 5.0.2 -  RELEASE  -
|  1> ! PW6B95 D3BJ def2-QZVP RIJK def2/JK tightSCF CPCM(THF)
|  2> ! sp Pal8
|  3>
|  4> * xyz 0 1
|  5>   C   -3.73960343994941      1.38237846571148     -0.01018472137700
|  6>   C   -3.95209423661028     -0.00313059079921      0.00578492594493
|  7>   C   -2.85458844310860     -0.86945742609142      0.11446102819859
|  8>   C   -1.56674406619872     -0.36210891650932      0.20172968567998
|  9>   C   -1.34561631589354      1.02657636454948      0.18143351690064
| 10>   C   -2.44946709383592      1.89065596788692      0.07898368984005
| 11>   H   -2.28511429944432      2.96211842312021      0.06303735342823
| 12>   H   -4.58331696061722      2.05780015512753     -0.09438513038902
| 13>   H   -3.02730999828864     -1.94039134538065      0.13348526254316
| 14>   H   -0.73341988370356     -1.04939524636605      0.29917652949321
| 15>   C   0.01140691174831      1.59303942987179      0.26465334350120
| 16>   C   1.17270399540154      0.84810582366360      0.16111652876659
| 17>   O   0.06727335389756      2.91142218659327      0.43443522114754
| 18>   C   2.45122587348867      1.48723584447787      0.23454680500613
| 19>   C   3.70514246845666      0.69686892479499      0.12040619876873
| 20>   H   1.10632981145425     -0.21599804833338     -0.00804501991343
| 21>   H   1.08921235796429      3.11754161384985      0.44486848805998
| 22>   O   2.53672874730645      2.74930372711446      0.38721625702498
| 23>   C   3.71493319763512     -0.70425006515561      0.16252823407048
| 24>   C   4.91154437668871      1.40426761163298     -0.02221714141498
| 25>   C   6.11650083206667      0.71036785118729     -0.12956399689066
| 26>   C   6.12384180210086     -0.69409757921308     -0.08368910456500
| 27>   H   4.87109969850677      2.48619809669818     -0.04922465471429
| 28>   C   4.92838086475816     -1.38776869073713      0.06468336198413
| 29>   H   7.07129650099187     -1.21856733756440     -0.16557024779180
| 30>   H   4.94207241117256     -2.47300530790467      0.10481269291259
| 31>   H   2.79562479624024     -1.26475803331498      0.28797899692178
| 32>   C   -5.31168766146884     -0.60057590061717     -0.08816491125716
| 33>   O   -5.53833344021548     -1.80189376884201     -0.09248704947887
| 34>   O   -6.28093538413537      0.33590904989840     -0.17090138166119
| 35>   C   -7.63542601699671     -0.18202384619301     -0.27046338152304
| 36>   H   -7.73288443004151     -0.78937627492722     -1.17281371079012
| 37>   H   -8.27043250060244      0.70089234046706     -0.32169617458163
| 38>   H   -7.86706594488960     -0.78303978712140      0.61134767070829
| 39>   O   7.33570346921781      1.30726349231279     -0.28292582445724
| 40>   C   7.36018171979455      2.74589692414692     -0.33699616429973
| 41>   H   8.40886974574329      3.01129027097197     -0.46858431154769
| 42>   H   6.97680490637572      3.17400349198021      0.59583893679118
| 43>   H   6.76919657688978      3.10997426961369     -1.18461185434102
| 44> *
| 45>
| 46>                          ****END OF INPUT****

CARTESIAN COORDINATES (ANGSTROEM)
---------------------------------
  C     -3.739603    1.382378   -0.010185
  C     -3.952094   -0.003131    0.005785
  C     -2.854588   -0.869457    0.114461
  C     -1.566744   -0.362109    0.201730
  C     -1.345616    1.026576    0.181434
  C     -2.449467    1.890656    0.078984
  H     -2.285114    2.962118    0.063037
  H     -4.583317    2.057800   -0.094385
  H     -3.027310   -1.940391    0.133485
  H     -0.733420   -1.049395    0.299177
  C      0.011407    1.593039    0.264653
  C      1.172704    0.848106    0.161117
  O      0.067273    2.911422    0.434435
  C      2.451226    1.487236    0.234547
  C      3.705142    0.696869    0.120406
  H      1.106330   -0.215998   -0.008045
  H      1.089212    3.117542    0.444868
  O      2.536729    2.749304    0.387216
  C      3.714933   -0.704250    0.162528
  C      4.911544    1.404268   -0.022217
  C      6.116501    0.710368   -0.129564
  C      6.123842   -0.694098   -0.083689
  H      4.871100    2.486198   -0.049225
  C      4.928381   -1.387769    0.064683
  H      7.071297   -1.218567   -0.165570
  H      4.942072   -2.473005    0.104813
  H      2.795625   -1.264758    0.287979
  C     -5.311688   -0.600576   -0.088165
  O     -5.538333   -1.801894   -0.092487
  O     -6.280935    0.335909   -0.170901
  C     -7.635426   -0.182024   -0.270463
  H     -7.732884   -0.789376   -1.172814
  H     -8.270433    0.700892   -0.321696
  H     -7.867066   -0.783040    0.611348
  O      7.335703    1.307263   -0.282926
  C      7.360182    2.745897   -0.336996
  H      8.408870    3.011290   -0.468584
  H      6.976805    3.174003    0.595839
  H      6.769197    3.109974   -1.184612

 Total Charge           Charge          ....    0
 Multiplicity           Mult            ....    1
 Number of Electrons    NEL             ....  164
 Basis Dimension        Dim             .... 1791

ORBITAL ENERGIES
----------------

  NO   OCC          E(Eh)            E(eV)
   0   2.0000     -19.350448      -526.5525
   1   2.0000     -19.332726      -526.0702
   2   2.0000     -19.330009      -525.9963
   3   2.0000     -19.294804      -525.0383
   4   2.0000     -19.294523      -525.0307
   5   2.0000     -10.440781      -284.1081
   6   2.0000     -10.401083      -283.0278
   7   2.0000     -10.398607      -282.9605
   8   2.0000     -10.371263      -282.2164
   9   2.0000     -10.349283      -281.6183
  10   2.0000     -10.345141      -281.5056
  11   2.0000     -10.336672      -281.2751
  12   2.0000     -10.333925      -281.2004
  13   2.0000     -10.323974      -280.9296
  14   2.0000     -10.323086      -280.9054
  15   2.0000     -10.322226      -280.8820
  16   2.0000     -10.321159      -280.8530
  17   2.0000     -10.320192      -280.8267
  18   2.0000     -10.312204      -280.6093
  19   2.0000     -10.310944      -280.5751
  20   2.0000     -10.310747      -280.5697
  21   2.0000     -10.309089      -280.5246
  22   2.0000     -10.302725      -280.3514
  23   2.0000      -1.142006       -31.0756
  24   2.0000      -1.112725       -30.2788
  25   2.0000      -1.098522       -29.8923
  26   2.0000      -1.063122       -28.9290
  27   2.0000      -1.054559       -28.6960
  28   2.0000      -0.908554       -24.7230
  29   2.0000      -0.892501       -24.2862
  30   2.0000      -0.837429       -22.7876
  31   2.0000      -0.810169       -22.0458
  32   2.0000      -0.792423       -21.5629
  33   2.0000      -0.786050       -21.3895
  34   2.0000      -0.780915       -21.2498
  35   2.0000      -0.752917       -20.4879
  36   2.0000      -0.725090       -19.7307
  37   2.0000      -0.698142       -18.9974
  38   2.0000      -0.672766       -18.3069
  39   2.0000      -0.645692       -17.5702
  40   2.0000      -0.629708       -17.1352
  41   2.0000      -0.620376       -16.8813
  42   2.0000      -0.595267       -16.1980
  43   2.0000      -0.594330       -16.1725
  44   2.0000      -0.569105       -15.4861
  45   2.0000      -0.555061       -15.1040
  46   2.0000      -0.534203       -14.5364
  47   2.0000      -0.516337       -14.0502
  48   2.0000      -0.514485       -13.9999
  49   2.0000      -0.509539       -13.8653
  50   2.0000      -0.508478       -13.8364
  51   2.0000      -0.500165       -13.6102
  52   2.0000      -0.489481       -13.3195
  53   2.0000      -0.485483       -13.2107
  54   2.0000      -0.476736       -12.9727
  55   2.0000      -0.469102       -12.7649
  56   2.0000      -0.467471       -12.7205
  57   2.0000      -0.462420       -12.5831
  58   2.0000      -0.457685       -12.4542
  59   2.0000      -0.452126       -12.3030
  60   2.0000      -0.439935       -11.9712
  61   2.0000      -0.434133       -11.8133
  62   2.0000      -0.430506       -11.7147
  63   2.0000      -0.423728       -11.5302
  64   2.0000      -0.410942       -11.1823
  65   2.0000      -0.399382       -10.8677
  66   2.0000      -0.399032       -10.8582
  67   2.0000      -0.394132       -10.7249
  68   2.0000      -0.390046       -10.6137
  69   2.0000      -0.386140       -10.5074
  70   2.0000      -0.379262       -10.3202
  71   2.0000      -0.369063       -10.0427
  72   2.0000      -0.357785        -9.7358
  73   2.0000      -0.347895        -9.4667
  74   2.0000      -0.336089        -9.1455
  75   2.0000      -0.315139        -8.5754
  76   2.0000      -0.305205        -8.3050
  77   2.0000      -0.297214        -8.0876
  78   2.0000      -0.289576        -7.8798
  79   2.0000      -0.283576        -7.7165
  80   2.0000      -0.263291        -7.1645
  81   2.0000      -0.247321        -6.7299
  82   0.0000      -0.097044        -2.6407
  83   0.0000      -0.053033        -1.4431
  84   0.0000      -0.023022        -0.6265
  85   0.0000      -0.005891        -0.1603
  86   0.0000      -0.001537        -0.0418

MULLIKEN ATOMIC CHARGES
-----------------------
   0 C :   -0.120395
   1 C :    0.057190
   2 C :   -0.104628
   3 C :   -0.091225
   4 C :    0.075592
   5 C :   -0.111596
   6 H :    0.125920
   7 H :    0.131543
   8 H :    0.128064
   9 H :    0.122914
  10 C :    0.246165
  11 C :   -0.225920
  12 O :   -0.393613
  13 C :    0.221126
  14 C :    0.032264
  15 H :    0.102228
  16 H :    0.270995
  17 O :   -0.461488
  18 C :   -0.103971
  19 C :   -0.042783
  20 C :    0.106765
  21 C :   -0.068266
  22 H :    0.101338
  23 C :   -0.165277
  24 H :    0.130640
  25 H :    0.132930
  26 H :    0.116624
  27 C :    0.358057
  28 O :   -0.422031
  29 O :   -0.348027
  30 C :   -0.083373
  31 H :    0.127239
  32 H :    0.126067
  33 H :    0.127552
  34 O :   -0.369331
  35 C :   -0.082612
  36 H :    0.131419
  37 H :    0.111474
  38 H :    0.110430
Sum of atomic charges:    0.0000000

LOEWDIN ATOMIC CHARGES
----------------------
   0 C :    0.106164
   1 C :   -0.104149
   2 C :    0.108310
   3 C :    0.113558
   4 C :   -0.081561
   5 C :    0.111762
   6 H :   -0.046730
   7 H :   -0.046873
   8 H :   -0.042567
   9 H :   -0.043938
  10 C :   -0.313420
  11 C :    0.053720
  12 O :    0.656110
  13 C :   -0.415503
  14 C :   -0.100992
  15 H :   -0.062011
  16 H :   -0.410392
  17 O :    0.374310
  18 C :    0.086599
  19 C :    0.090657
  20 C :   -0.346675
  21 C :    0.086591
  22 H :   -0.055327
  23 C :    0.069294
  24 H :   -0.048140
  25 H :   -0.049760
  26 H :   -0.052779
  27 C :   -0.740001
  28 O :    0.291721
  29 O :    0.505014
  30 C :    0.103527
  31 H :   -0.061050
  32 H :   -0.064659
  33 H :   -0.061071
  34 O :    0.497679
  35 C :    0.077190
  36 H :   -0.063344
  37 H :   -0.060583
  38 H :   -0.060680

  Mayer bond orders larger than 0.100000
B(  0-C ,  1-C ) :   1.2965 B(  0-C ,  5-C ) :   1.3874 B(  0-C ,  7-H ) :   0.9474
B(  1-C ,  2-C ) :   1.2858 B(  1-C , 27-C ) :   1.0185 B(  2-C ,  3-C ) :   1.3911
B(  2-C ,  8-H ) :   0.9448 B(  3-C ,  4-C ) :   1.2755 B(  3-C ,  9-H ) :   0.9522
B(  4-C ,  5-C ) :   1.2897 B(  4-C , 10-C ) :   1.0243 B(  5-C ,  6-H ) :   0.9497
B( 10-C , 11-C ) :   1.4176 B( 10-C , 12-O ) :   1.2355 B( 11-C , 13-C ) :   1.2012
B( 11-C , 15-H ) :   0.9551 B( 12-O , 16-H ) :   0.7725 B( 13-C , 14-C ) :   1.0126
B( 13-C , 17-O ) :   1.5859 B( 14-C , 18-C ) :   1.3295 B( 14-C , 19-C ) :   1.2566
B( 16-H , 17-O ) :   0.2729 B( 18-C , 23-C ) :   1.3746 B( 18-C , 26-H ) :   0.9509
B( 19-C , 20-C ) :   1.3400 B( 19-C , 22-H ) :   0.9517 B( 20-C , 21-C ) :   1.3154
B( 20-C , 34-O ) :   1.1161 B( 21-C , 23-C ) :   1.4080 B( 21-C , 24-H ) :   0.9388
B( 23-C , 25-H ) :   0.9497 B( 27-C , 28-O ) :   1.8997 B( 27-C , 29-O ) :   1.2031
B( 29-O , 30-C ) :   0.8479 B( 30-C , 31-H ) :   0.9627 B( 30-C , 32-H ) :   0.9627
B( 30-C , 33-H ) :   0.9626 B( 34-O , 35-C ) :   0.8945 B( 35-C , 36-H ) :   0.9681
B( 35-C , 37-H ) :   0.9606 B( 35-C , 38-H ) :   0.9605

Dispersion correction           -0.024175239
FINAL SINGLE POINT ENERGY     -1073.526266862905

DIPOLE MOMENT
-------------
                                X             Y             Z
Electronic contribution:     -3.27384      -0.46370       1.12324
Nuclear contribution   :      3.14937       0.30154      -1.40745
                        -----------------------------------------
Total Dipole Moment    :     -0.12448      -0.16217      -0.28421
                        -----------------------------------------
Magnitude (a.u.)       :      0.35010
Magnitude (Debye)      :      0.88987

Rotational constants in cm-1:     0.030729     0.002482     0.002307
Rotational constants in MHz :   921.223726    74.415475    69.159663

                             ****ORCA TERMINATED NORMALLY****
TOTAL RUN TIME: 0 days 0 hours 32 minutes 17 seconds 499 msec
