                         Program Version 5.0.2 -  RELEASE  -
|  1> ! TPSS D3BJ def2-TZVP RI def2/J CPCM(THF)
|  2> ! Opt numfreq Pal4
|  3>
|  4> * xyz 0 1
|  5> C        -3.73241239236612    1.36171476055349   -0.07853698919956
|  6> C        -3.92582414540343   -0.01803246669365   -0.03905576916665
|  7> C        -2.81972509364954   -0.86537484892012    0.02508240192226
|  8> C        -1.54209423405408   -0.34808919097129    0.05999237677056
|  9> C        -1.33954595432711    1.03376920069212    0.02590235886537
| 10> C        -2.45304934126072    1.87653425230700   -0.04873963018070
| 11> H        -2.29596754896243    2.94323071929863   -0.07737617105221
| 12> H        -4.58535970757819    2.01904005852678   -0.13011596253373
| 13> H        -2.98806134814568   -1.93111910522161    0.05692203459789
| 14> H        -0.70715792070665   -1.02431141815305    0.13689699041920
| 15> C        -0.00101450575256    1.64158643643218    0.10341859421401
| 16> C         1.15863722727974    0.92951815761154   -0.04856699041970
| 17> O         0.00131821775121    2.94335341847041    0.35014255391799
| 18> C         2.44648246401535    1.55076658384066    0.10766688613252
| 19> C         3.67097373202286    0.71465526424652    0.04266042127313
| 20> H         1.11258639430153   -0.11257012421165   -0.29433549050833
| 21> H         0.95559922408192    3.24514239655340    0.38911835192522
| 22> O         2.55514578546289    2.77565958371431    0.30984159496986
| 23> C         3.66433627577799   -0.67669773080203    0.09273722632091
| 24> C         4.89029368194806    1.39296824677211   -0.03382913881302
| 25> C         6.08913418258696    0.69714147371838   -0.06428298308216
| 26> C         6.06603291924423   -0.70002424124734   -0.02294158534977
| 27> H         4.85945340272171    2.47102644132399   -0.06283756315786
| 28> C         4.86285041583242   -1.37056711493184    0.05838156129829
| 29> H         7.00472619000887   -1.23026788911260   -0.04798830918486
| 30> H         4.85738649322227   -2.44896936865473    0.09934862238593
| 31> H         2.74403121740821   -1.22874376121794    0.18185813716194
| 32> C        -5.27788729444493   -0.62298684385964   -0.04316044193192
| 33> O        -5.48818139991977   -1.81765208011006   -0.02256816023445
| 34> O        -6.25539364531448    0.28644730050672   -0.06425782179641
| 35> C        -7.59210609758124   -0.20955643455524   -0.05242516090353
| 36> H        -7.76820274882489   -0.83883755966907   -0.92682133363852
| 37> H        -8.23391514028727    0.66692413385318   -0.06969240035765
| 38> H        -7.76547420476120   -0.80112882844030    0.84858618045725
| 39> O         7.32101633013075    1.26935728696491   -0.13195688825524
| 40> C         7.41528124535232    2.67971640504820   -0.15268580278655
| 41> H         8.48103950052084    2.89721974795541   -0.19121190991730
| 42> H         6.98334842923441    3.12021782700979    0.75056379350390
| 43> H         6.92373369633544    3.09821147197269   -1.03573363696760
| 44> *
| 45>
| 46>                          ****END OF INPUT****
 Total Charge           Charge          ....    0
 Multiplicity           Mult            ....    1
 Number of Electrons    NEL             ....  164
Dispersion correction           -0.059203400
FINAL SINGLE POINT ENERGY     -1072.335711464469
Dispersion correction            ... done
Dispersion correction           -0.059003352
FINAL SINGLE POINT ENERGY     -1072.339478487076
Dispersion correction            ... done
Dispersion correction           -0.058938304
FINAL SINGLE POINT ENERGY     -1072.340142304916
Dispersion correction            ... done
FINAL SINGLE POINT ENERGY     -1072.340389920643
FINAL SINGLE POINT ENERGY     -1072.340324051553
FINAL SINGLE POINT ENERGY     -1072.340516265126
FINAL SINGLE POINT ENERGY     -1072.340518929583
FINAL SINGLE POINT ENERGY     -1072.340538980803
Dispersion correction            ... done
Dispersion correction           -0.058987847
FINAL SINGLE POINT ENERGY     -1072.340542578764
Dispersion correction            ... done
Dispersion correction           -0.058987381
FINAL SINGLE POINT ENERGY     -1072.340544742665
Dispersion correction            ... done
                    ***********************HURRAY********************

CARTESIAN COORDINATES (ANGSTROEM)
---------------------------------
  C     -3.739603    1.382378   -0.010185
  C     -3.952094   -0.003131    0.005785
  C     -2.854588   -0.869457    0.114461
  C     -1.566744   -0.362109    0.201730
  C     -1.345616    1.026576    0.181434
  C     -2.449467    1.890656    0.078984
  H     -2.285114    2.962118    0.063037
  H     -4.583317    2.057800   -0.094385
  H     -3.027310   -1.940391    0.133485
  H     -0.733420   -1.049395    0.299177
  C      0.011407    1.593039    0.264653
  C      1.172704    0.848106    0.161117
  O      0.067273    2.911422    0.434435
  C      2.451226    1.487236    0.234547
  C      3.705142    0.696869    0.120406
  H      1.106330   -0.215998   -0.008045
  H      1.089212    3.117542    0.444868
  O      2.536729    2.749304    0.387216
  C      3.714933   -0.704250    0.162528
  C      4.911544    1.404268   -0.022217
  C      6.116501    0.710368   -0.129564
  C      6.123842   -0.694098   -0.083689
  H      4.871100    2.486198   -0.049225
  C      4.928381   -1.387769    0.064683
  H      7.071297   -1.218567   -0.165570
  H      4.942072   -2.473005    0.104813
  H      2.795625   -1.264758    0.287979
  C     -5.311688   -0.600576   -0.088165
  O     -5.538333   -1.801894   -0.092487
  O     -6.280935    0.335909   -0.170901
  C     -7.635426   -0.182024   -0.270463
  H     -7.732884   -0.789376   -1.172814
  H     -8.270433    0.700892   -0.321696
  H     -7.867066   -0.783040    0.611348
  O      7.335703    1.307263   -0.282926
  C      7.360182    2.745897   -0.336996
  H      8.408870    3.011290   -0.468584
  H      6.976805    3.174003    0.595839
  H      6.769197    3.109974   -1.184612

 Multiplicity           Mult            ....    1
 Number of Electrons    NEL             ....  164
 Basis Dimension        Dim             ....  809

ORBITAL ENERGIES
----------------

  NO   OCC          E(Eh)            E(eV)
   0   2.0000     -18.934419      -515.2317
   1   2.0000     -18.919370      -514.8222
   2   2.0000     -18.915511      -514.7172
   3   2.0000     -18.879635      -513.7410
   4   2.0000     -18.877754      -513.6898
   5   2.0000     -10.115694      -275.2620
   6   2.0000     -10.078905      -274.2609
   7   2.0000     -10.074913      -274.1523
   8   2.0000     -10.053587      -273.5720
   9   2.0000     -10.039683      -273.1937
  10   2.0000     -10.036332      -273.1025
  11   2.0000     -10.020389      -272.6686
  12   2.0000     -10.017760      -272.5971
  13   2.0000     -10.008789      -272.3530
  14   2.0000     -10.007623      -272.3213
  15   2.0000     -10.007618      -272.3211
  16   2.0000     -10.006662      -272.2951
  17   2.0000     -10.005769      -272.2708
  18   2.0000      -9.998124      -272.0628
  19   2.0000      -9.997104      -272.0350
  20   2.0000      -9.996389      -272.0156
  21   2.0000      -9.994573      -271.9661
  22   2.0000      -9.990925      -271.8669
  23   2.0000      -1.036650       -28.2087
  24   2.0000      -1.010013       -27.4838
  25   2.0000      -0.998274       -27.1644
  26   2.0000      -0.960649       -26.1406
  27   2.0000      -0.951787       -25.8994
  28   2.0000      -0.819096       -22.2887
  29   2.0000      -0.803599       -21.8670
  30   2.0000      -0.751575       -20.4514
  31   2.0000      -0.726033       -19.7564
  32   2.0000      -0.710207       -19.3257
  33   2.0000      -0.703792       -19.1511
  34   2.0000      -0.699452       -19.0330
  35   2.0000      -0.674080       -18.3427
  36   2.0000      -0.648594       -17.6491
  37   2.0000      -0.621507       -16.9121
  38   2.0000      -0.597178       -16.2500
  39   2.0000      -0.573595       -15.6083
  40   2.0000      -0.557323       -15.1655
  41   2.0000      -0.549084       -14.9413
  42   2.0000      -0.525494       -14.2994
  43   2.0000      -0.523302       -14.2398
  44   2.0000      -0.499058       -13.5800
  45   2.0000      -0.487279       -13.2595
  46   2.0000      -0.466393       -12.6912
  47   2.0000      -0.451862       -12.2958
  48   2.0000      -0.445138       -12.1128
  49   2.0000      -0.440816       -11.9952
  50   2.0000      -0.439959       -11.9719
  51   2.0000      -0.436397       -11.8750
  52   2.0000      -0.424169       -11.5422
  53   2.0000      -0.418088       -11.3768
  54   2.0000      -0.413347       -11.2477
  55   2.0000      -0.405693       -11.0395
  56   2.0000      -0.403492       -10.9796
  57   2.0000      -0.397892       -10.8272
  58   2.0000      -0.396121       -10.7790
  59   2.0000      -0.389304       -10.5935
  60   2.0000      -0.380339       -10.3495
  61   2.0000      -0.375465       -10.2169
  62   2.0000      -0.371215       -10.1013
  63   2.0000      -0.363877        -9.9016
  64   2.0000      -0.348964        -9.4958
  65   2.0000      -0.342820        -9.3286
  66   2.0000      -0.340054        -9.2533
  67   2.0000      -0.334460        -9.1011
  68   2.0000      -0.331854        -9.0302
  69   2.0000      -0.325020        -8.8443
  70   2.0000      -0.320864        -8.7312
  71   2.0000      -0.312167        -8.4945
  72   2.0000      -0.298289        -8.1168
  73   2.0000      -0.291944        -7.9442
  74   2.0000      -0.276036        -7.5113
  75   2.0000      -0.258638        -7.0379
  76   2.0000      -0.248250        -6.7552
  77   2.0000      -0.247466        -6.7339
  78   2.0000      -0.241722        -6.5776
  79   2.0000      -0.233262        -6.3474
  80   2.0000      -0.220652        -6.0042
  81   2.0000      -0.205281        -5.5860
  82   0.0000      -0.118701        -3.2300
  83   0.0000      -0.079266        -2.1569
  84   0.0000      -0.050936        -1.3860
  85   0.0000      -0.033264        -0.9051
  86   0.0000      -0.032631        -0.8879

MULLIKEN ATOMIC CHARGES
-----------------------
   0 C :   -0.166399
   1 C :    0.147166
   2 C :   -0.186347
   3 C :   -0.160603
   4 C :    0.132035
   5 C :   -0.183696
   6 H :    0.137176
   7 H :    0.137225
   8 H :    0.134162
   9 H :    0.128921
  10 C :    0.240330
  11 C :   -0.302162
  12 O :   -0.367995
  13 C :    0.328328
  14 C :    0.073979
  15 H :    0.173382
  16 H :    0.330121
  17 O :   -0.469099
  18 C :   -0.205731
  19 C :   -0.338369
  20 C :    0.338220
  21 C :   -0.195156
  22 H :    0.143152
  23 C :   -0.114313
  24 H :    0.121817
  25 H :    0.129889
  26 H :    0.124079
  27 C :    0.300866
  28 O :   -0.382980
  29 O :   -0.224107
  30 C :   -0.236815
  31 H :    0.148679
  32 H :    0.153197
  33 H :    0.148958
  34 O :   -0.253987
  35 C :   -0.227237
  36 H :    0.154784
  37 H :    0.144505
  38 H :    0.144025
Sum of atomic charges:   -0.0000000

LOEWDIN ATOMIC CHARGES
----------------------
   0 C :   -0.080081
   1 C :   -0.114147
   2 C :   -0.075162
   3 C :   -0.075193
   4 C :   -0.099869
   5 C :   -0.076191
   6 H :    0.157158
   7 H :    0.156802
   8 H :    0.158154
   9 H :    0.157083
  10 C :   -0.223789
  11 C :   -0.141853
  12 O :    0.128235
  13 C :   -0.272644
  14 C :   -0.117889
  15 H :    0.155221
  16 H :    0.180010
  17 O :    0.037659
  18 C :   -0.105841
  19 C :   -0.087212
  20 C :   -0.252525
  21 C :   -0.100089
  22 H :    0.157786
  23 C :   -0.134112
  24 H :    0.153183
  25 H :    0.151462
  26 H :    0.151702
  27 C :   -0.439835
  28 O :    0.074880
  29 O :    0.244620
  30 C :   -0.284541
  31 H :    0.116142
  32 H :    0.117680
  33 H :    0.116210
  34 O :    0.225868
  35 C :   -0.304114
  36 H :    0.117544
  37 H :    0.113847
  38 H :    0.113841

  Mayer bond orders larger than 0.100000
B(  0-C ,  1-C ) :   1.3223 B(  0-C ,  5-C ) :   1.4028 B(  0-C ,  7-H ) :   0.9898
B(  1-C ,  2-C ) :   1.3109 B(  1-C , 27-C ) :   1.0156 B(  1-C , 29-O ) :  -0.1156
B(  2-C ,  3-C ) :   1.4318 B(  2-C ,  8-H ) :   0.9824 B(  3-C ,  4-C ) :   1.3132
B(  3-C ,  9-H ) :   0.9792 B(  4-C ,  5-C ) :   1.3019 B(  4-C , 10-C ) :   1.0541
B(  5-C ,  6-H ) :   0.9831 B( 10-C , 11-C ) :   1.4645 B( 10-C , 12-O ) :   1.3337
B( 11-C , 13-C ) :   1.2270 B( 11-C , 15-H ) :   0.8825 B( 12-O , 16-H ) :   0.6876
B( 13-C , 14-C ) :   1.0397 B( 13-C , 17-O ) :   1.5815 B( 14-C , 18-C ) :   1.3412
B( 14-C , 19-C ) :   1.3127 B( 16-H , 17-O ) :   0.2565 B( 18-C , 23-C ) :   1.3911
B( 18-C , 26-H ) :   0.9717 B( 19-C , 20-C ) :   1.2939 B( 19-C , 22-H ) :   0.9511
B( 20-C , 21-C ) :   1.3003 B( 20-C , 34-O ) :   1.1542 B( 21-C , 23-C ) :   1.4190
B( 21-C , 24-H ) :   0.9951 B( 23-C , 25-H ) :   0.9837 B( 27-C , 28-O ) :   1.9371
B( 27-C , 29-O ) :   1.2432 B( 29-O , 30-C ) :   0.9008 B( 30-C , 31-H ) :   0.9640
B( 30-C , 32-H ) :   0.9622 B( 30-C , 33-H ) :   0.9638 B( 34-O , 35-C ) :   0.9343
B( 35-C , 36-H ) :   0.9618 B( 35-C , 37-H ) :   0.9568 B( 35-C , 38-H ) :   0.9565

Dispersion correction           -0.058986010
FINAL SINGLE POINT ENERGY     -1072.340546136872

DIPOLE MOMENT
-------------
                                X             Y             Z
Electronic contribution:     -3.20409      -0.37414       1.12730
Nuclear contribution   :      3.14937       0.30154      -1.40745
                        -----------------------------------------
Total Dipole Moment    :     -0.05472      -0.07260      -0.28015
                        -----------------------------------------
Magnitude (a.u.)       :      0.29453
Magnitude (Debye)      :      0.74865

VIBRATIONAL FREQUENCIES
-----------------------

Scaling factor for frequencies =  1.000000000 (already applied!)

   0:         0.00 cm**-1
   1:         0.00 cm**-1
   2:         0.00 cm**-1
   3:         0.00 cm**-1
   4:         0.00 cm**-1
   5:         0.00 cm**-1
   6:        13.83 cm**-1
   7:        16.11 cm**-1
   8:        41.09 cm**-1
   9:        47.68 cm**-1
  10:        52.27 cm**-1
  11:        76.20 cm**-1
  12:       102.34 cm**-1
  13:       108.48 cm**-1
  14:       113.31 cm**-1
  15:       134.26 cm**-1
  16:       137.67 cm**-1
  17:       168.33 cm**-1
  18:       181.95 cm**-1
  19:       207.75 cm**-1
  20:       214.92 cm**-1
  21:       238.94 cm**-1
  22:       267.48 cm**-1
  23:       278.51 cm**-1
  24:       303.92 cm**-1
  25:       308.67 cm**-1
  26:       351.91 cm**-1
  27:       398.30 cm**-1
  28:       409.45 cm**-1
  29:       431.07 cm**-1
  30:       447.07 cm**-1
  31:       462.41 cm**-1
  32:       479.48 cm**-1
  33:       492.52 cm**-1
  34:       503.50 cm**-1
  35:       544.83 cm**-1
  36:       563.61 cm**-1
  37:       626.91 cm**-1
  38:       629.34 cm**-1
  39:       659.80 cm**-1
  40:       679.82 cm**-1
  41:       682.79 cm**-1
  42:       700.80 cm**-1
  43:       729.81 cm**-1
  44:       753.33 cm**-1
  45:       769.90 cm**-1
  46:       786.98 cm**-1
  47:       805.21 cm**-1
  48:       815.11 cm**-1
  49:       841.38 cm**-1
  50:       867.82 cm**-1
  51:       871.57 cm**-1
  52:       883.51 cm**-1
  53:       897.43 cm**-1
  54:       932.56 cm**-1
  55:       946.96 cm**-1
  56:       960.20 cm**-1
  57:       975.28 cm**-1
  58:       982.78 cm**-1
  59:       992.92 cm**-1
  60:      1014.09 cm**-1
  61:      1015.63 cm**-1
  62:      1016.22 cm**-1
  63:      1066.12 cm**-1
  64:      1090.83 cm**-1
  65:      1098.49 cm**-1
  66:      1100.33 cm**-1
  67:      1120.53 cm**-1
  68:      1148.59 cm**-1
  69:      1151.89 cm**-1
  70:      1170.22 cm**-1
  71:      1177.24 cm**-1
  72:      1181.53 cm**-1
  73:      1189.99 cm**-1
  74:      1207.07 cm**-1
  75:      1251.83 cm**-1
  76:      1256.83 cm**-1
  77:      1284.56 cm**-1
  78:      1296.00 cm**-1
  79:      1301.40 cm**-1
  80:      1317.92 cm**-1
  81:      1339.41 cm**-1
  82:      1360.32 cm**-1
  83:      1402.12 cm**-1
  84:      1425.52 cm**-1
  85:      1446.81 cm**-1
  86:      1451.58 cm**-1
  87:      1467.22 cm**-1
  88:      1472.09 cm**-1
  89:      1475.83 cm**-1
  90:      1477.69 cm**-1
  91:      1485.29 cm**-1
  92:      1497.76 cm**-1
  93:      1511.85 cm**-1
  94:      1543.47 cm**-1
  95:      1568.46 cm**-1
  96:      1592.21 cm**-1
  97:      1597.78 cm**-1
  98:      1612.42 cm**-1
  99:      1614.74 cm**-1
 100:      1677.21 cm**-1
 101:      2468.61 cm**-1
 102:      2989.87 cm**-1
 103:      3025.13 cm**-1
 104:      3052.75 cm**-1
 105:      3099.90 cm**-1
 106:      3116.10 cm**-1
 107:      3134.42 cm**-1
 108:      3143.00 cm**-1
 109:      3158.96 cm**-1
 110:      3159.33 cm**-1
 111:      3169.36 cm**-1
 112:      3172.07 cm**-1
 113:      3173.56 cm**-1
 114:      3183.14 cm**-1
 115:      3185.78 cm**-1
 116:      3219.17 cm**-1

IR SPECTRUM
-----------

 Mode   freq       eps      Int      T**2         TX        TY        TZ
       cm**-1   L/(mol*cm) km/mol    a.u.
----------------------------------------------------------------------------
  6:     13.83   0.000334    1.69  0.007540  (-0.003978 -0.006476  0.086502)
  7:     16.11   0.000158    0.80  0.003056  (-0.008599 -0.011127  0.053466)
  8:     41.09   0.000121    0.61  0.000921  ( 0.021724  0.017276 -0.012280)
  9:     47.68   0.000066    0.33  0.000433  ( 0.000192 -0.008311 -0.019075)
 10:     52.27   0.000717    3.62  0.004280  (-0.006382  0.002538 -0.065056)
 11:     76.20   0.000423    2.14  0.001733  (-0.002041 -0.010516  0.040228)
 12:    102.34   0.001271    6.42  0.003875  ( 0.026040  0.006212  0.056195)
 13:    108.48   0.000412    2.08  0.001186  (-0.034205 -0.002181  0.003416)
 14:    113.31   0.000866    4.37  0.002384  (-0.017837 -0.009025  0.044546)
 15:    134.26   0.000275    1.39  0.000640  (-0.019740  0.015582  0.002688)
 16:    137.67   0.000026    0.13  0.000059  (-0.005158  0.003348 -0.004605)
 17:    168.33   0.000658    3.33  0.001220  (-0.008392  0.006864  0.033207)
 18:    181.95   0.000027    0.14  0.000047  ( 0.001917  0.004252 -0.005011)
 19:    207.75   0.000574    2.90  0.000862  ( 0.021304 -0.019176 -0.006355)
 20:    214.92   0.001047    5.29  0.001520  (-0.034456  0.013513 -0.012236)
 21:    238.94   0.000509    2.57  0.000665  (-0.016986 -0.018298  0.006441)
 22:    267.48   0.000192    0.97  0.000224  (-0.005527  0.000979 -0.013871)
 23:    278.51   0.000776    3.92  0.000870  ( 0.009246 -0.005573 -0.027450)
 24:    303.92   0.005110   25.82  0.005247  ( 0.067356 -0.025541  0.007577)
 25:    308.67   0.000511    2.58  0.000516  ( 0.020082 -0.010559 -0.001203)
 26:    351.91   0.002757   13.93  0.002445  ( 0.045525 -0.019236  0.001432)
 27:    398.30   0.000075    0.38  0.000058  (-0.007122 -0.002773 -0.000083)
 28:    409.45   0.002453   12.40  0.001870  (-0.041737  0.011195  0.001504)
 29:    431.07   0.000266    1.34  0.000193  (-0.002512 -0.000054  0.013651)
 30:    447.07   0.000469    2.37  0.000327  (-0.015216 -0.009779  0.000051)
 31:    462.41   0.002241   11.32  0.001512  (-0.006506 -0.007554 -0.037589)
 32:    479.48   0.003435   17.36  0.002236  (-0.043662 -0.018055  0.001836)
 33:    492.52   0.001903    9.62  0.001206  (-0.019593 -0.028472 -0.003328)
 34:    503.50   0.002018   10.20  0.001250  ( 0.024781 -0.023808  0.008341)
 35:    544.83   0.000296    1.50  0.000169  (-0.007494 -0.005027  0.009384)
 36:    563.61   0.004770   24.11  0.002641  (-0.049901 -0.012292  0.000023)
 37:    626.91   0.009360   47.30  0.004659  ( 0.068123 -0.003536 -0.002462)
 38:    629.34   0.000725    3.66  0.000359  ( 0.018745 -0.002464 -0.001375)
 39:    659.80   0.000970    4.90  0.000459  ( 0.002947 -0.004115 -0.020809)
 40:    679.82   0.005576   28.18  0.002560  ( 0.003486  0.002792  0.050397)
 41:    682.79   0.000970    4.90  0.000443  (-0.017397 -0.004954  0.010776)
 42:    700.80   0.005542   28.01  0.002468  ( 0.001723 -0.004517 -0.049442)
 43:    729.81   0.000929    4.69  0.000397  ( 0.004950  0.004692  0.018725)
 44:    753.33   0.023957  121.07  0.009924  ( 0.099151  0.008015 -0.005381)
 45:    769.90   0.024329  122.95  0.009861  ( 0.003588 -0.003017  0.099193)
 46:    786.98   0.007091   35.83  0.002812  ( 0.009160 -0.002716  0.052158)
 47:    805.21   0.002340   11.82  0.000907  (-0.002217  0.006942 -0.029218)
 48:    815.11   0.003111   15.72  0.001191  (-0.010799  0.032482 -0.004386)
 49:    841.38   0.000291    1.47  0.000108  (-0.000588 -0.000712 -0.010351)
 50:    867.82   0.003809   19.25  0.001370  ( 0.036765  0.000540  0.004228)
 51:    871.57   0.005994   30.29  0.002146  ( 0.009242 -0.005206 -0.045097)
 52:    883.51   0.006229   31.48  0.002200  ( 0.006074 -0.003988 -0.046340)
 53:    897.43   0.000481    2.43  0.000167  ( 0.000493  0.003628  0.012405)
 54:    932.56   0.004127   20.85  0.001381  (-0.032656  0.016919  0.005310)
 55:    946.96   0.004021   20.32  0.001325  (-0.027329 -0.023996 -0.001511)
 56:    960.20   0.000078    0.39  0.000025  ( 0.001156  0.004846  0.000737)
 57:    975.28   0.000097    0.49  0.000031  (-0.002705  0.001105 -0.004730)
 58:    982.78   0.000061    0.31  0.000019  (-0.001283  0.000681 -0.004169)
 59:    992.92   0.002102   10.62  0.000661  (-0.012309  0.022565  0.000131)
 60:   1014.09   0.008240   41.64  0.002536  ( 0.030760  0.033004  0.022364)
 61:   1015.63   0.030207  152.66  0.009282  (-0.077690 -0.048109  0.030516)
 62:   1016.22   0.017820   90.05  0.005472  ( 0.023679 -0.011089  0.069199)
 63:   1066.12   0.012343   62.38  0.003613  (-0.039520  0.044889  0.006004)
 64:   1090.83   0.014704   74.31  0.004206  (-0.060878 -0.022112 -0.003357)
 65:   1098.49   0.030357  153.41  0.008624  (-0.086501  0.033441 -0.004804)
 66:   1100.33   0.024274  122.67  0.006884  (-0.082362  0.005511 -0.008394)
 67:   1120.53   0.006246   31.57  0.001740  ( 0.022026 -0.035418  0.000024)
 68:   1148.59   0.000335    1.69  0.000091  ( 0.000170 -0.000546  0.009526)
 69:   1151.89   0.000256    1.30  0.000069  (-0.000534 -0.000776 -0.008280)
 70:   1170.22   0.003867   19.54  0.001031  ( 0.008406 -0.030920  0.002156)
 71:   1177.24   0.020522  103.71  0.005440  ( 0.040598 -0.061506  0.002961)
 72:   1181.53   0.016820   85.00  0.004442  ( 0.065884  0.009791  0.002424)
 73:   1189.99   0.015919   80.45  0.004175  (-0.063290  0.012090 -0.004763)
 74:   1207.07   0.011060   55.89  0.002859  ( 0.010174  0.052434 -0.002546)
 75:   1251.83   0.178932  904.25  0.044605  ( 0.201893  0.061650 -0.006619)
 76:   1256.83   0.108819  549.93  0.027019  (-0.162867  0.014412 -0.016908)
 77:   1284.56   0.033288  168.22  0.008087  (-0.048975  0.073668  0.016163)
 78:   1296.00   0.077907  393.71  0.018759  ( 0.130322 -0.041389 -0.007889)
 79:   1301.40   0.031349  158.42  0.007517  ( 0.083627 -0.022150 -0.005740)
 80:   1317.92   0.002121   10.72  0.000502  ( 0.009089  0.020474  0.000657)
 81:   1339.41   0.019112   96.58  0.004453  (-0.040082 -0.053094 -0.005209)
 82:   1360.32   0.011865   59.96  0.002722  (-0.012458 -0.050585  0.002802)
 83:   1402.12   0.016191   81.82  0.003604  ( 0.045866  0.036512  0.012916)
 84:   1425.52   0.008762   44.28  0.001918  (-0.014465  0.040560  0.007981)
 85:   1446.81   0.025505  128.89  0.005501  (-0.067955 -0.029714 -0.000627)
 86:   1451.58   0.050101  253.19  0.010771  ( 0.085378  0.058995  0.000958)
 87:   1467.22   0.002575   13.01  0.000548  ( 0.001778 -0.002540 -0.023197)
 88:   1472.09   0.078325  395.82  0.016604  ( 0.117820  0.052083  0.003125)
 89:   1475.83   0.002258   11.41  0.000478  (-0.015586  0.014890 -0.003594)
 90:   1477.69   0.001998   10.10  0.000422  ( 0.004426  0.001629 -0.019991)
 91:   1485.29   0.014805   74.82  0.003110  ( 0.051027  0.021403 -0.006974)
 92:   1497.76   0.000506    2.56  0.000106  (-0.003892 -0.007463 -0.005888)
 93:   1511.85   0.010498   53.05  0.002167  ( 0.027297 -0.037417 -0.004672)
 94:   1543.47   0.062353  315.11  0.012607  (-0.058119  0.095795  0.007225)
 95:   1568.46   0.065132  329.15  0.012959  (-0.107582 -0.037204 -0.000860)
 96:   1592.21   0.012157   61.43  0.002383  ( 0.047518 -0.009860 -0.005237)
 97:   1597.78   0.014908   75.34  0.002912  (-0.048956 -0.020655  0.009400)
 98:   1612.42   0.206679  1044.47  0.040000  ( 0.190997 -0.058762 -0.008205)
 99:   1614.74   0.002618   13.23  0.000506  (-0.015141  0.016537  0.001824)
100:   1677.21   0.099476  502.71  0.018509  ( 0.044625  0.128518  0.000444)
101:   2468.61   0.174697  882.85  0.022084  ( 0.146525  0.024695  0.002084)
102:   2989.87   0.010793   54.54  0.001127  (-0.003634 -0.033335  0.001452)
103:   3025.13   0.005653   28.57  0.000583  (-0.023551 -0.005043 -0.001757)
104:   3052.75   0.008189   41.38  0.000837  ( 0.003151  0.000815  0.028749)
105:   3099.90   0.004416   22.32  0.000445  (-0.001748  0.000403  0.021008)
106:   3116.10   0.005296   26.76  0.000530  ( 0.022421  0.004671 -0.002414)
107:   3134.42   0.003256   16.45  0.000324  ( 0.009641 -0.015191  0.000655)
108:   3143.00   0.001613    8.15  0.000160  (-0.000099 -0.012643  0.000563)
109:   3158.96   0.002475   12.51  0.000244  (-0.013371  0.007993  0.001350)
110:   3159.33   0.001746    8.82  0.000172  (-0.012676  0.003426 -0.000183)
111:   3169.36   0.000149    0.75  0.000015  (-0.003651 -0.001148 -0.000074)
112:   3172.07   0.002391   12.09  0.000235  ( 0.000017  0.015262 -0.001534)
113:   3173.56   0.000766    3.87  0.000075  (-0.006000  0.006239 -0.000653)
114:   3183.14   0.001024    5.17  0.000100  ( 0.007125 -0.007026  0.000493)
115:   3185.78   0.001961    9.91  0.000192  ( 0.013794  0.000012 -0.001337)
116:   3219.17   0.000428    2.17  0.000042  ( 0.004579  0.004530  0.000211)

--------------------------
THERMOCHEMISTRY AT 298.15K
--------------------------

Temperature         ... 298.15 K
Pressure            ... 1.00 atm
Total Mass          ... 312.32 AMU

Throughout the following assumptions are being made:
  (1) The electronic state is orbitally nondegenerate
  (2) There are no thermally accessible electronically excited states
  (3) Hindered rotations indicated by low frequency modes are not
      treated as such but are treated as vibrations and this may
      cause some error
  (4) All equations used are the standard statistical mechanics
      equations for an ideal gas
  (5) All vibrations are strictly harmonic

freq.      13.83  E(vib)   ...       0.57
freq.      16.11  E(vib)   ...       0.57
freq.      41.09  E(vib)   ...       0.54
freq.      47.68  E(vib)   ...       0.53
freq.      52.27  E(vib)   ...       0.52
freq.      76.20  E(vib)   ...       0.49
freq.     102.34  E(vib)   ...       0.46
freq.     108.48  E(vib)   ...       0.45
freq.     113.31  E(vib)   ...       0.45
freq.     134.26  E(vib)   ...       0.42
freq.     137.67  E(vib)   ...       0.42
freq.     168.33  E(vib)   ...       0.38
freq.     181.95  E(vib)   ...       0.37
freq.     207.75  E(vib)   ...       0.34
freq.     214.92  E(vib)   ...       0.34
freq.     238.94  E(vib)   ...       0.32
freq.     267.48  E(vib)   ...       0.29
freq.     278.51  E(vib)   ...       0.28
freq.     303.92  E(vib)   ...       0.26
freq.     308.67  E(vib)   ...       0.26
freq.     351.91  E(vib)   ...       0.23
freq.     398.30  E(vib)   ...       0.20
freq.     409.45  E(vib)   ...       0.19
freq.     431.07  E(vib)   ...       0.18
freq.     447.07  E(vib)   ...       0.17
freq.     462.41  E(vib)   ...       0.16
freq.     479.48  E(vib)   ...       0.15
freq.     492.52  E(vib)   ...       0.14
freq.     503.50  E(vib)   ...       0.14
freq.     544.83  E(vib)   ...       0.12
freq.     563.61  E(vib)   ...       0.11
freq.     626.91  E(vib)   ...       0.09
freq.     629.34  E(vib)   ...       0.09
freq.     659.80  E(vib)   ...       0.08
freq.     679.82  E(vib)   ...       0.08
freq.     682.79  E(vib)   ...       0.08
freq.     700.80  E(vib)   ...       0.07
freq.     729.81  E(vib)   ...       0.06
freq.     753.33  E(vib)   ...       0.06
freq.     769.90  E(vib)   ...       0.05
freq.     786.98  E(vib)   ...       0.05
freq.     805.21  E(vib)   ...       0.05
freq.     815.11  E(vib)   ...       0.05
freq.     841.38  E(vib)   ...       0.04
freq.     867.82  E(vib)   ...       0.04
freq.     871.57  E(vib)   ...       0.04
freq.     883.51  E(vib)   ...       0.04
freq.     897.43  E(vib)   ...       0.03
freq.     932.56  E(vib)   ...       0.03
freq.     946.96  E(vib)   ...       0.03
freq.     960.20  E(vib)   ...       0.03
freq.     975.28  E(vib)   ...       0.03
freq.     982.78  E(vib)   ...       0.02
freq.     992.92  E(vib)   ...       0.02
freq.    1014.09  E(vib)   ...       0.02
freq.    1015.63  E(vib)   ...       0.02
freq.    1016.22  E(vib)   ...       0.02
freq.    1066.12  E(vib)   ...       0.02
freq.    1090.83  E(vib)   ...       0.02
freq.    1098.49  E(vib)   ...       0.02
freq.    1100.33  E(vib)   ...       0.02
freq.    1120.53  E(vib)   ...       0.01
freq.    1148.59  E(vib)   ...       0.01
freq.    1151.89  E(vib)   ...       0.01
freq.    1170.22  E(vib)   ...       0.01
freq.    1177.24  E(vib)   ...       0.01
freq.    1181.53  E(vib)   ...       0.01
freq.    1189.99  E(vib)   ...       0.01
freq.    1207.07  E(vib)   ...       0.01
freq.    1251.83  E(vib)   ...       0.01
freq.    1256.83  E(vib)   ...       0.01
freq.    1284.56  E(vib)   ...       0.01
freq.    1296.00  E(vib)   ...       0.01
freq.    1301.40  E(vib)   ...       0.01
freq.    1317.92  E(vib)   ...       0.01
freq.    1339.41  E(vib)   ...       0.01
freq.    1360.32  E(vib)   ...       0.01
freq.    1402.12  E(vib)   ...       0.00
freq.    1425.52  E(vib)   ...       0.00
freq.    1446.81  E(vib)   ...       0.00
freq.    1451.58  E(vib)   ...       0.00
freq.    1467.22  E(vib)   ...       0.00
freq.    1472.09  E(vib)   ...       0.00
freq.    1475.83  E(vib)   ...       0.00
freq.    1477.69  E(vib)   ...       0.00
freq.    1485.29  E(vib)   ...       0.00
freq.    1497.76  E(vib)   ...       0.00
freq.    1511.85  E(vib)   ...       0.00
freq.    1543.47  E(vib)   ...       0.00
freq.    1568.46  E(vib)   ...       0.00
freq.    1592.21  E(vib)   ...       0.00
freq.    1597.78  E(vib)   ...       0.00
freq.    1612.42  E(vib)   ...       0.00
freq.    1614.74  E(vib)   ...       0.00
freq.    1677.21  E(vib)   ...       0.00
freq.    2468.61  E(vib)   ...       0.00
freq.    2989.87  E(vib)   ...       0.00
freq.    3025.13  E(vib)   ...       0.00
freq.    3052.75  E(vib)   ...       0.00
freq.    3099.90  E(vib)   ...       0.00
freq.    3116.10  E(vib)   ...       0.00
freq.    3134.42  E(vib)   ...       0.00
freq.    3143.00  E(vib)   ...       0.00
freq.    3158.96  E(vib)   ...       0.00
freq.    3159.33  E(vib)   ...       0.00
freq.    3169.36  E(vib)   ...       0.00
freq.    3172.07  E(vib)   ...       0.00
freq.    3173.56  E(vib)   ...       0.00
freq.    3183.14  E(vib)   ...       0.00
freq.    3185.78  E(vib)   ...       0.00
freq.    3219.17  E(vib)   ...       0.00

------------
INNER ENERGY
------------

The inner energy is: U= E(el) + E(ZPE) + E(vib) + E(rot) + E(trans)
    E(el)   - is the total energy from the electronic structure calculation
              = E(kin-el) + E(nuc-el) + E(el-el) + E(nuc-nuc)
    E(ZPE)  - the the zero temperature vibrational energy from the frequency calculation
    E(vib)  - the the finite temperature correction to E(ZPE) due to population
              of excited vibrational states
    E(rot)  - is the rotational thermal energy
    E(trans)- is the translational thermal energy

Summary of contributions to the inner energy U:
Electronic energy                ...  -1072.34054614 Eh
Zero point energy                ...      0.29802607 Eh     187.01 kcal/mol
Thermal vibrational correction   ...      0.01836122 Eh      11.52 kcal/mol
Thermal rotational correction    ...      0.00141627 Eh       0.89 kcal/mol
Thermal translational correction ...      0.00141627 Eh       0.89 kcal/mol
-----------------------------------------------------------------------
Total thermal energy                  -1072.02132630 Eh

Summary of corrections to the electronic energy:
(perhaps to be used in another calculation)
Total thermal correction                  0.02119376 Eh      13.30 kcal/mol
Non-thermal (ZPE) correction              0.29802607 Eh     187.01 kcal/mol
-----------------------------------------------------------------------
Total correction                          0.31921984 Eh     200.31 kcal/mol

--------

Rotational constants in cm-1:     0.030729     0.002482     0.002307

                             ****ORCA TERMINATED NORMALLY****
TOTAL RUN TIME: 0 days 13 hours 17 minutes 47 seconds 678 msec
