                         Program Version 5.0.2 -  RELEASE  -
|  1> ! PW6B95 D3BJ def2-QZVP RIJK def2/JK tightSCF CPCM(THF)
|  2> ! sp Pal8
|  3>
|  4> * xyz 0 1
|  5>   C   -2.90415594362074      2.98659759962306     -0.62639137952430
|  6>   C   -3.16014228373024      2.00571311257060      0.34348687823222
|  7>   C   -2.09183427189648      1.30903677099131      0.91439620984618
|  8>   C   -0.77880501259214      1.57724378222959      0.54107926135591
|  9>   C   -0.52354971874284      2.55861614108094     -0.43336285634166
| 10>   C   -1.58841910570641      3.25480820638992     -1.01304554722015
| 11>   H   -1.38938146801522      4.01016919080657     -1.76660227096181
| 12>   H   -4.17366122479612      1.78190061205236      0.65603192659330
| 13>   H   -2.29776153783586      0.54872425631466      1.66236388092674
| 14>   H   0.03387253577645      1.02247378196697      0.99590708482934
| 15>   C   0.86282505945627      2.88321705118390     -0.89093709502586
| 16>   C   2.02617828640711      2.20112261594342     -0.19551398594428
| 17>   O   1.04812065992280      3.66627593303921     -1.82170572776467
| 18>   C   3.40891859214644      2.80977991157766     -0.50410040662812
| 19>   H   2.02334843248056      1.14857503863623     -0.51483512942152
| 20>   H   1.85871531003247      2.18531911561380      0.88735655344234
| 21>   C   4.47934656732132      1.88502104915374      0.03384402336094
| 22>   C   3.49879040633473      4.21273336119463      0.07717913110490
| 23>   H   3.49110693147020      2.91660360272822     -1.59498285418374
| 24>   C   3.61843359672987      4.40500318663451      1.46423087985145
| 25>   C   3.73669437103957      5.68248171469394      2.00130268831662
| 26>   O   -3.87358569481120      3.72619660976280     -1.24480545096832
| 27>   C   -5.23897564576471      3.47559350542916     -0.86480535066066
| 28>   H   -5.51883587401547      2.43949480681329     -1.08584388842296
| 29>   H   -5.83575556818882      4.16039245591479     -1.46682718843641
| 30>   H   -5.38869179180071      3.68341821219715      0.20061408066792
| 31>   C   3.74019982334468      6.81148510800803      1.16516678645369
| 32>   C   3.60501564499973      6.63560940090471     -0.22205248554857
| 33>   C   3.48196949169436      5.34909124567590     -0.75331182874808
| 34>   H   3.37340545344853      5.21524753119762     -1.82553572984230
| 35>   H   3.59908709024452      7.49771562255795     -0.87996641511146
| 36>   H   3.65434160245367      3.53610155808974      2.11554513536108
| 37>   H   3.84331310063504      5.82395994378960      3.07214309096766
| 38>   C   3.89016228319445      8.15244319906294      1.78794978422266
| 39>   O   3.89759761905754      9.14670131755794      0.87290240786530
| 40>   O   3.99598627014451      8.34786255042222      2.99014208729073
| 41>   C   4.03997350686594     10.48699541970562      1.41679572466079
| 42>   H   3.20538545159208     10.70514138769765      2.08636784718567
| 43>   H   4.02839753468459     11.14471951425239      0.54917278668672
| 44>   H   4.98455353206942     10.56762035314624      1.95880366190808
| 45>   C   5.80334052009707      2.22022873754265      0.11811051376068
| 46>   C   6.80784295722549      1.23353308644474      0.63617419776500
| 47>   O   6.28467713645853      3.38968373961950     -0.25046121983440
| 48>   H   4.15848979448277      0.89120079469639      0.32776594424669
| 49>   C   6.45723049066251      0.02238272749179      1.26831401942458
| 50>   C   8.16456409204798      1.53693532536492      0.49020499333840
| 51>   C   9.15747459797310      0.66052673186958      0.94575641110187
| 52>   H   8.44938410197385      2.46847552451445      0.01254137979052
| 53>   C   7.44638492872559     -0.84240638107720      1.71975403594487
| 54>   C   8.80667379916309     -0.54248148539734      1.56561685019496
| 55>   H   9.55879341903473     -1.23309915440192      1.92915154181844
| 56>   H   5.41492412556508     -0.23606095760893      1.42262717519781
| 57>   H   7.16565692200840     -1.77098143711483      2.21053726598281
| 58>   O   10.45257954783989      1.07151647504435      0.73957320137414
| 59>   C   11.49554681969321      0.19893578114728      1.20120879920727
| 60>   H   11.43100036511507      0.05407752221869      2.28603948609918
| 61>   H   12.42937523152534      0.70119005368190      0.94742890856747
| 62>   H   11.44368580758542     -0.77251730499324      0.69570726648574
| 63>   Li  5.78981628559203      5.03868402794520     -0.20026866184156
| 64> *
| 65>
| 66>                          ****END OF INPUT****

CARTESIAN COORDINATES (ANGSTROEM)
---------------------------------
  C     -2.904156    2.986598   -0.626391
  C     -3.160142    2.005713    0.343487
  C     -2.091834    1.309037    0.914396
  C     -0.778805    1.577244    0.541079
  C     -0.523550    2.558616   -0.433363
  C     -1.588419    3.254808   -1.013046
  H     -1.389381    4.010169   -1.766602
  H     -4.173661    1.781901    0.656032
  H     -2.297762    0.548724    1.662364
  H      0.033873    1.022474    0.995907
  C      0.862825    2.883217   -0.890937
  C      2.026178    2.201123   -0.195514
  O      1.048121    3.666276   -1.821706
  C      3.408919    2.809780   -0.504100
  H      2.023348    1.148575   -0.514835
  H      1.858715    2.185319    0.887357
  C      4.479347    1.885021    0.033844
  C      3.498790    4.212733    0.077179
  H      3.491107    2.916604   -1.594983
  C      3.618434    4.405003    1.464231
  C      3.736694    5.682482    2.001303
  O     -3.873586    3.726197   -1.244805
  C     -5.238976    3.475594   -0.864805
  H     -5.518836    2.439495   -1.085844
  H     -5.835756    4.160392   -1.466827
  H     -5.388692    3.683418    0.200614
  C      3.740200    6.811485    1.165167
  C      3.605016    6.635609   -0.222052
  C      3.481969    5.349091   -0.753312
  H      3.373405    5.215248   -1.825536
  H      3.599087    7.497716   -0.879966
  H      3.654342    3.536102    2.115545
  H      3.843313    5.823960    3.072143
  C      3.890162    8.152443    1.787950
  O      3.897598    9.146701    0.872902
  O      3.995986    8.347863    2.990142
  C      4.039974   10.486995    1.416796
  H      3.205385   10.705141    2.086368
  H      4.028398   11.144720    0.549173
  H      4.984554   10.567620    1.958804
  C      5.803341    2.220229    0.118111
  C      6.807843    1.233533    0.636174
  O      6.284677    3.389684   -0.250461
  H      4.158490    0.891201    0.327766
  C      6.457230    0.022383    1.268314
  C      8.164564    1.536935    0.490205
  C      9.157475    0.660527    0.945756
  H      8.449384    2.468476    0.012541
  C      7.446385   -0.842406    1.719754
  C      8.806674   -0.542481    1.565617
  H      9.558793   -1.233099    1.929152
  H      5.414924   -0.236061    1.422627
  H      7.165657   -1.770981    2.210537
  O     10.452580    1.071516    0.739573
  C     11.495547    0.198936    1.201209
  H     11.431000    0.054078    2.286039
  H     12.429375    0.701190    0.947429
  H     11.443686   -0.772517    0.695707
  Li     5.789816    5.038684   -0.200269

 Total Charge           Charge          ....    0
 Multiplicity           Mult            ....    1
 Number of Electrons    NEL             ....  238
 Basis Dimension        Dim             .... 2666

ORBITAL ENERGIES
----------------

  NO   OCC          E(Eh)            E(eV)
   0   2.0000     -19.350762      -526.5610
   1   2.0000     -19.332433      -526.0623
   2   2.0000     -19.322798      -525.8001
   3   2.0000     -19.294870      -525.0401
   4   2.0000     -19.291540      -524.9495
   5   2.0000     -19.231278      -523.3097
   6   2.0000     -10.441445      -284.1262
   7   2.0000     -10.395568      -282.8778
   8   2.0000     -10.371112      -282.2123
   9   2.0000     -10.356132      -281.8047
  10   2.0000     -10.349723      -281.6303
  11   2.0000     -10.346006      -281.5291
  12   2.0000     -10.340007      -281.3659
  13   2.0000     -10.334904      -281.2270
  14   2.0000     -10.334257      -281.2094
  15   2.0000     -10.333006      -281.1754
  16   2.0000     -10.329093      -281.0689
  17   2.0000     -10.325499      -280.9711
  18   2.0000     -10.319830      -280.8169
  19   2.0000     -10.319181      -280.7992
  20   2.0000     -10.317180      -280.7447
  21   2.0000     -10.313079      -280.6331
  22   2.0000     -10.312211      -280.6095
  23   2.0000     -10.311613      -280.5932
  24   2.0000     -10.308682      -280.5135
  25   2.0000     -10.308101      -280.4977
  26   2.0000     -10.307296      -280.4758
  27   2.0000     -10.302404      -280.3427
  28   2.0000     -10.297637      -280.2130
  29   2.0000     -10.293149      -280.0908
  30   2.0000     -10.288468      -279.9635
  31   2.0000     -10.286344      -279.9056
  32   2.0000     -10.261737      -279.2361
  33   2.0000      -2.027763       -55.1782
  34   2.0000      -1.142208       -31.0811
  35   2.0000      -1.098109       -29.8811
  36   2.0000      -1.087025       -29.5794
  37   2.0000      -1.075377       -29.2625
  38   2.0000      -1.054820       -28.7031
  39   2.0000      -0.997898       -27.1542
  40   2.0000      -0.910946       -24.7881
  41   2.0000      -0.891227       -24.2515
  42   2.0000      -0.872122       -23.7316
  43   2.0000      -0.846494       -23.0343
  44   2.0000      -0.804407       -21.8890
  45   2.0000      -0.792470       -21.5642
  46   2.0000      -0.790173       -21.5017
  47   2.0000      -0.787537       -21.4300
  48   2.0000      -0.776565       -21.1314
  49   2.0000      -0.772553       -21.0222
  50   2.0000      -0.748961       -20.3803
  51   2.0000      -0.732882       -19.9427
  52   2.0000      -0.721867       -19.6430
  53   2.0000      -0.710417       -19.3314
  54   2.0000      -0.688477       -18.7344
  55   2.0000      -0.657895       -17.9022
  56   2.0000      -0.647283       -17.6135
  57   2.0000      -0.636320       -17.3152
  58   2.0000      -0.629262       -17.1231
  59   2.0000      -0.613148       -16.6846
  60   2.0000      -0.606350       -16.4996
  61   2.0000      -0.594608       -16.1801
  62   2.0000      -0.573488       -15.6054
  63   2.0000      -0.565183       -15.3794
  64   2.0000      -0.556193       -15.1348
  65   2.0000      -0.546963       -14.8836
  66   2.0000      -0.524023       -14.2594
  67   2.0000      -0.515298       -14.0220
  68   2.0000      -0.510184       -13.8828
  69   2.0000      -0.509467       -13.8633
  70   2.0000      -0.507969       -13.8225
  71   2.0000      -0.504570       -13.7301
  72   2.0000      -0.496675       -13.5152
  73   2.0000      -0.493865       -13.4387
  74   2.0000      -0.489641       -13.3238
  75   2.0000      -0.482426       -13.1275
  76   2.0000      -0.481387       -13.0992
  77   2.0000      -0.478693       -13.0259
  78   2.0000      -0.475760       -12.9461
  79   2.0000      -0.472489       -12.8571
  80   2.0000      -0.465185       -12.6583
  81   2.0000      -0.458391       -12.4734
  82   2.0000      -0.453220       -12.3327
  83   2.0000      -0.447879       -12.1874
  84   2.0000      -0.440197       -11.9784
  85   2.0000      -0.437065       -11.8932
  86   2.0000      -0.433881       -11.8065
  87   2.0000      -0.433329       -11.7915
  88   2.0000      -0.423972       -11.5369
  89   2.0000      -0.418475       -11.3873
  90   2.0000      -0.412076       -11.2132
  91   2.0000      -0.409088       -11.1319
  92   2.0000      -0.401643       -10.9293
  93   2.0000      -0.395093       -10.7510
  94   2.0000      -0.393955       -10.7201
  95   2.0000      -0.389252       -10.5921
  96   2.0000      -0.387833       -10.5535
  97   2.0000      -0.384942       -10.4748
  98   2.0000      -0.380240       -10.3468
  99   2.0000      -0.373020       -10.1504
 100   2.0000      -0.372544       -10.1374
 101   2.0000      -0.366222        -9.9654
 102   2.0000      -0.359063        -9.7706
 103   2.0000      -0.354847        -9.6559
 104   2.0000      -0.352000        -9.5784
 105   2.0000      -0.348017        -9.4700
 106   2.0000      -0.339479        -9.2377
 107   2.0000      -0.336606        -9.1595
 108   2.0000      -0.333053        -9.0628
 109   2.0000      -0.315437        -8.5835
 110   2.0000      -0.298189        -8.1141
 111   2.0000      -0.292816        -7.9679
 112   2.0000      -0.284063        -7.7298
 113   2.0000      -0.280965        -7.6454
 114   2.0000      -0.265166        -7.2155
 115   2.0000      -0.257649        -7.0110
 116   2.0000      -0.250530        -6.8173
 117   2.0000      -0.238935        -6.5017
 118   2.0000      -0.199178        -5.4199
 119   0.0000      -0.064157        -1.7458
 120   0.0000      -0.063254        -1.7212
 121   0.0000      -0.030316        -0.8249
 122   0.0000      -0.017947        -0.4883
 123   0.0000      -0.010153        -0.2763

MULLIKEN ATOMIC CHARGES
-----------------------
   0 C :    0.111800
   1 C :   -0.092677
   2 C :   -0.197852
   3 C :   -0.116248
   4 C :    0.065008
   5 C :   -0.064745
   6 H :    0.116242
   7 H :    0.120340
   8 H :    0.131854
   9 H :    0.114222
  10 C :    0.171653
  11 C :   -0.030661
  12 O :   -0.402311
  13 C :    0.018289
  14 H :    0.132580
  15 H :    0.082098
  16 C :   -0.242421
  17 C :    0.181476
  18 H :    0.053764
  19 C :   -0.107902
  20 C :   -0.093446
  21 O :   -0.369251
  22 C :   -0.080137
  23 H :    0.109439
  24 H :    0.131904
  25 H :    0.109009
  26 C :    0.038625
  27 C :   -0.136913
  28 C :   -0.114157
  29 H :    0.084951
  30 H :    0.127876
  31 H :    0.103167
  32 H :    0.127016
  33 C :    0.332283
  34 O :   -0.350509
  35 O :   -0.421386
  36 C :   -0.084741
  37 H :    0.127871
  38 H :    0.125013
  39 H :    0.126898
  40 C :    0.104168
  41 C :    0.111413
  42 O :   -0.470066
  43 H :    0.054568
  44 C :   -0.160491
  45 C :   -0.092161
  46 C :    0.109407
  47 H :    0.103829
  48 C :   -0.195322
  49 C :   -0.131602
  50 H :    0.112076
  51 H :    0.104906
  52 H :    0.122728
  53 O :   -0.379708
  54 C :   -0.081701
  55 H :    0.106411
  56 H :    0.127909
  57 H :    0.106974
  58 Li:    0.408640
Sum of atomic charges:    0.0000000

LOEWDIN ATOMIC CHARGES
----------------------
   0 C :   -0.345180
   1 C :    0.075378
   2 C :    0.069414
   3 C :    0.079644
   4 C :   -0.106036
   5 C :    0.101821
   6 H :   -0.046203
   7 H :   -0.054666
   8 H :   -0.050234
   9 H :   -0.051070
  10 C :   -0.424447
  11 C :    0.122990
  12 O :    0.330690
  13 C :   -0.020752
  14 H :   -0.013942
  15 H :   -0.020500
  16 C :    0.059057
  17 C :    0.012177
  18 H :   -0.009479
  19 C :    0.166199
  20 C :    0.152349
  21 O :    0.496991
  22 C :    0.075014
  23 H :   -0.061348
  24 H :   -0.063024
  25 H :   -0.061344
  26 C :   -0.074476
  27 C :    0.167798
  28 C :    0.180466
  29 H :   -0.010994
  30 H :   -0.027983
  31 H :   -0.024238
  32 H :   -0.032926
  33 C :   -0.733575
  34 O :    0.506397
  35 O :    0.293642
  36 C :    0.104165
  37 H :   -0.060573
  38 H :   -0.064368
  39 H :   -0.060677
  40 C :   -0.418939
  41 C :   -0.088138
  42 O :    0.429260
  43 H :   -0.076404
  44 C :    0.064593
  45 C :    0.085315
  46 C :   -0.352100
  47 H :   -0.050641
  48 C :    0.049202
  49 C :    0.047673
  50 H :   -0.062744
  51 H :   -0.059558
  52 H :   -0.055547
  53 O :    0.487722
  54 C :    0.063321
  55 H :   -0.062871
  56 H :   -0.065117
  57 H :   -0.062803
  58 Li:   -0.448383

  Mayer bond orders larger than 0.100000
B(  0-C ,  1-C ) :   1.3258 B(  0-C ,  5-C ) :   1.3355 B(  0-C , 21-O ) :   1.1329
B(  1-C ,  2-C ) :   1.3598 B(  1-C ,  7-H ) :   0.9516 B(  2-C ,  3-C ) :   1.4172
B(  2-C ,  8-H ) :   0.9499 B(  3-C ,  4-C ) :   1.2844 B(  3-C ,  9-H ) :   0.9531
B(  4-C ,  5-C ) :   1.3066 B(  4-C , 10-C ) :   1.0246 B(  5-C ,  6-H ) :   0.9387
B( 10-C , 11-C ) :   0.9848 B( 10-C , 12-O ) :   1.8756 B( 11-C , 13-C ) :   0.9131
B( 11-C , 14-H ) :   0.9108 B( 11-C , 15-H ) :   0.9209 B( 13-C , 16-C ) :   0.9177
B( 13-C , 17-C ) :   1.0171 B( 13-C , 18-H ) :   0.9435 B( 16-C , 40-C ) :   1.5304
B( 16-C , 43-H ) :   0.9735 B( 17-C , 19-C ) :   1.3351 B( 17-C , 28-C ) :   1.2316
B( 19-C , 20-C ) :   1.3791 B( 19-C , 31-H ) :   0.9443 B( 20-C , 26-C ) :   1.2758
B( 20-C , 32-H ) :   0.9465 B( 21-O , 22-C ) :   0.8986 B( 22-C , 23-H ) :   0.9609
B( 22-C , 24-H ) :   0.9676 B( 22-C , 25-H ) :   0.9605 B( 26-C , 27-C ) :   1.2960
B( 26-C , 33-C ) :   1.0421 B( 27-C , 28-C ) :   1.3739 B( 27-C , 30-H ) :   0.9534
B( 28-C , 29-H ) :   0.9654 B( 28-C , 58-Li) :   0.1040 B( 33-C , 34-O ) :   1.2068
B( 33-C , 35-O ) :   1.9106 B( 34-O , 36-C ) :   0.8491 B( 36-C , 37-H ) :   0.9626
B( 36-C , 38-H ) :   0.9631 B( 36-C , 39-H ) :   0.9619 B( 40-C , 41-C ) :   0.9885
B( 40-C , 42-O ) :   1.2588 B( 41-C , 44-C ) :   1.2589 B( 41-C , 45-C ) :   1.3151
B( 42-O , 58-Li) :   0.7413 B( 44-C , 48-C ) :   1.4481 B( 44-C , 51-H ) :   0.9581
B( 45-C , 46-C ) :   1.3179 B( 45-C , 47-H ) :   0.9477 B( 46-C , 49-C ) :   1.3524
B( 46-C , 53-O ) :   1.1280 B( 48-C , 49-C ) :   1.3409 B( 48-C , 52-H ) :   0.9519
B( 49-C , 50-H ) :   0.9561 B( 53-O , 54-C ) :   0.9069 B( 54-C , 55-H ) :   0.9613
B( 54-C , 56-H ) :   0.9685 B( 54-C , 57-H ) :   0.9618

Dispersion correction           -0.041596828
FINAL SINGLE POINT ENERGY     -1505.458533761301

DIPOLE MOMENT
-------------
                                X             Y             Z
Electronic contribution:      4.98782      10.50532      -4.41792
Nuclear contribution   :     -6.75039      -9.64236       5.11411
                        -----------------------------------------
Total Dipole Moment    :     -1.76258       0.86296       0.69618
                        -----------------------------------------
Magnitude (a.u.)       :      2.08232
Magnitude (Debye)      :      5.29283

Rotational constants in cm-1:     0.004361     0.001931     0.001425
Rotational constants in MHz :   130.730714    57.891769    42.723043

                             ****ORCA TERMINATED NORMALLY****
TOTAL RUN TIME: 0 days 2 hours 25 minutes 6 seconds 857 msec
