                         Program Version 5.0.2 -  RELEASE  -
|  1> ! PW6B95 D3BJ def2-QZVP RIJK def2/JK tightSCF CPCM(THF)
|  2> ! sp Pal4
|  3>
|  4> * xyz 0 1
|  5>   N   -3.64831299155467     -1.91653970228591     -0.96978025551186
|  6>   C   -2.19547949101286     -2.19150366807883     -0.91737607775784
|  7>   C   -4.39203297300550     -2.02606804889088      0.30216287906824
|  8>   H   -4.06465227678161     -2.57345649753033     -1.63360890268795
|  9>   C   -1.62646658604898     -1.98936944142639     -2.32348866564902
| 10>   C   -1.82964658667418     -3.58408012747822     -0.37727532850084
| 11>   H   -1.75377116499963     -1.43599149690000     -0.25636984758823
| 12>   C   -3.94596440578179     -0.93618718560648      1.27961000376150
| 13>   H   -4.22775365921330     -3.00576723938650      0.78449531088715
| 14>   C   -5.88400621439720     -1.90431653799069     -0.01292348752386
| 15>   H   -2.06655723448055     -2.71502868041604     -3.01975568798743
| 16>   H   -0.54086806951153     -2.13306171541689     -2.32804745583680
| 17>   H   -1.85069123257232     -0.98263554799586     -2.68998315521881
| 18>   H   -2.25423799748349     -4.36441849122119     -1.02159221972811
| 19>   H   -2.20524230421919     -3.73772137871048      0.63961352294554
| 20>   H   -0.74140163830100     -3.71310353674875     -0.35583101074491
| 21>   H   -2.89553856565558     -1.05058816500658      1.56560841148406
| 22>   H   -4.54868580911136     -0.98265636491596      2.19292167651089
| 23>   H   -4.07422160759139      0.05337741631701      0.82541259063916
| 24>   H   -6.10063682695167     -0.92764190544136     -0.46100776757572
| 25>   H   -6.48023003040399     -2.01013583706624      0.89941762825976
| 26>   H   -6.19748296514888     -2.68334166360376     -0.71829987924518
| 27> *
| 28>
| 29>                          ****END OF INPUT****

CARTESIAN COORDINATES (ANGSTROEM)
---------------------------------
  N     -3.648313   -1.916540   -0.969780
  C     -2.195479   -2.191504   -0.917376
  C     -4.392033   -2.026068    0.302163
  H     -4.064652   -2.573456   -1.633609
  C     -1.626467   -1.989369   -2.323489
  C     -1.829647   -3.584080   -0.377275
  H     -1.753771   -1.435991   -0.256370
  C     -3.945964   -0.936187    1.279610
  H     -4.227754   -3.005767    0.784495
  C     -5.884006   -1.904317   -0.012923
  H     -2.066557   -2.715029   -3.019756
  H     -0.540868   -2.133062   -2.328047
  H     -1.850691   -0.982636   -2.689983
  H     -2.254238   -4.364418   -1.021592
  H     -2.205242   -3.737721    0.639614
  H     -0.741402   -3.713104   -0.355831
  H     -2.895539   -1.050588    1.565608
  H     -4.548686   -0.982656    2.192922
  H     -4.074222    0.053377    0.825413
  H     -6.100637   -0.927642   -0.461008
  H     -6.480230   -2.010136    0.899418
  H     -6.197483   -2.683342   -0.718300

 Total Charge           Charge          ....    0
 Multiplicity           Mult            ....    1
 Number of Electrons    NEL             ....   58
 Basis Dimension        Dim             ....  849

ORBITAL ENERGIES
----------------

  NO   OCC          E(Eh)            E(eV)
   0   2.0000     -14.440417      -392.9437
   1   2.0000     -10.318754      -280.7876
   2   2.0000     -10.318611      -280.7837
   3   2.0000     -10.277560      -279.6666
   4   2.0000     -10.276853      -279.6474
   5   2.0000     -10.275995      -279.6240
   6   2.0000     -10.275990      -279.6239
   7   2.0000      -0.924875       -25.1671
   8   2.0000      -0.804633       -21.8952
   9   2.0000      -0.746930       -20.3250
  10   2.0000      -0.703543       -19.1444
  11   2.0000      -0.700394       -19.0587
  12   2.0000      -0.604596       -16.4519
  13   2.0000      -0.577609       -15.7175
  14   2.0000      -0.503908       -13.7120
  15   2.0000      -0.472099       -12.8465
  16   2.0000      -0.463300       -12.6070
  17   2.0000      -0.445244       -12.1157
  18   2.0000      -0.415530       -11.3072
  19   2.0000      -0.411795       -11.2055
  20   2.0000      -0.398523       -10.8444
  21   2.0000      -0.394817       -10.7435
  22   2.0000      -0.384112       -10.4522
  23   2.0000      -0.364755        -9.9255
  24   2.0000      -0.359566        -9.7843
  25   2.0000      -0.347269        -9.4497
  26   2.0000      -0.339192        -9.2299
  27   2.0000      -0.332902        -9.0587
  28   2.0000      -0.241814        -6.5801
  29   0.0000       0.024807         0.6750
  30   0.0000       0.044745         1.2176
  31   0.0000       0.045889         1.2487
  32   0.0000       0.050847         1.3836
  33   0.0000       0.072507         1.9730

MULLIKEN ATOMIC CHARGES
-----------------------
   0 N :   -0.450534
   1 C :    0.100394
   2 C :    0.071285
   3 H :    0.188138
   4 C :   -0.303383
   5 C :   -0.294838
   6 H :    0.092179
   7 C :   -0.275924
   8 H :    0.051116
   9 C :   -0.301243
  10 H :    0.086951
  11 H :    0.095174
  12 H :    0.094645
  13 H :    0.099200
  14 H :    0.083196
  15 H :    0.096005
  16 H :    0.089337
  17 H :    0.094080
  18 H :    0.101932
  19 H :    0.095304
  20 H :    0.093404
  21 H :    0.093581
Sum of atomic charges:   -0.0000000

LOEWDIN ATOMIC CHARGES
----------------------
   0 N :    0.481394
   1 C :   -0.197087
   2 C :   -0.201994
   3 H :   -0.175145
   4 C :    0.219217
   5 C :    0.222646
   6 H :   -0.047329
   7 C :    0.222709
   8 H :   -0.055829
   9 C :    0.221026
  10 H :   -0.055505
  11 H :   -0.056062
  12 H :   -0.060115
  13 H :   -0.056036
  14 H :   -0.063319
  15 H :   -0.055965
  16 H :   -0.061512
  17 H :   -0.054956
  18 H :   -0.055304
  19 H :   -0.056633
  20 H :   -0.055956
  21 H :   -0.058245

  Mayer bond orders larger than 0.100000
B(  0-N ,  1-C ) :   0.9980 B(  0-N ,  2-C ) :   1.0340 B(  0-N ,  3-H ) :   0.9329
B(  1-C ,  4-C ) :   0.9915 B(  1-C ,  5-C ) :   0.9728 B(  1-C ,  6-H ) :   0.9454
B(  2-C ,  7-C ) :   0.9856 B(  2-C ,  8-H ) :   0.9531 B(  2-C ,  9-C ) :   0.9838
B(  4-C , 10-H ) :   0.9605 B(  4-C , 11-H ) :   0.9685 B(  4-C , 12-H ) :   0.9710
B(  5-C , 13-H ) :   0.9583 B(  5-C , 14-H ) :   0.9660 B(  5-C , 15-H ) :   0.9673
B(  7-C , 16-H ) :   0.9646 B(  7-C , 17-H ) :   0.9654 B(  7-C , 18-H ) :   0.9603
B(  9-C , 19-H ) :   0.9658 B(  9-C , 20-H ) :   0.9686 B(  9-C , 21-H ) :   0.9664

Dispersion correction           -0.008592794
FINAL SINGLE POINT ENERGY      -292.931174208307

DIPOLE MOMENT
-------------
                                X             Y             Z
Electronic contribution:     -0.31029       0.37323      -0.65352
Nuclear contribution   :      0.39927      -0.91199       0.85866
                        -----------------------------------------
Total Dipole Moment    :      0.08897      -0.53876       0.20514
                        -----------------------------------------
Magnitude (a.u.)       :      0.58332
Magnitude (Debye)      :      1.48268

Rotational constants in cm-1:     0.137357     0.048036     0.045382
Rotational constants in MHz :  4117.869027  1440.082862  1360.504027

                             ****ORCA TERMINATED NORMALLY****
TOTAL RUN TIME: 0 days 0 hours 7 minutes 13 seconds 765 msec
