                         Program Version 5.0.2 -  RELEASE  -
|  1> ! TPSS D3BJ def2-TZVP RI def2/J CPCM(THF)
|  2> ! Opt numfreq Pal4
|  3>
|  4> * xyz 0 1
|  5> N        -3.58344417612903   -1.94365772281645   -0.87472842583596
|  6> C        -2.19198541082266   -2.36439824826760   -0.83348748322500
|  7> C        -4.29137145135694   -1.90318977570130    0.39900998479212
|  8> H        -4.08612282763850   -2.51964640174613   -1.54171858668130
|  9> C        -1.49030388531024   -1.84615873261574   -2.08951920949160
| 10> C        -2.01930999653330   -3.88584813993939   -0.71631541342218
| 11> H        -1.73469018795790   -1.89014258151727    0.04280256923498
| 12> C        -4.05977917017557   -0.53951769390989    1.05607561415844
| 13> H        -3.92558047169161   -2.68668956494319    1.08969812730884
| 14> C        -5.78327002415554   -2.12849740937742    0.16635184035320
| 15> H        -1.91916417080276   -2.30659864891972   -2.97677978822599
| 16> H        -0.42878910057077   -2.07784774993851   -2.05402106601857
| 17> H        -1.61645081497968   -0.76999895868655   -2.16525471128215
| 18> H        -2.42898164847436   -4.37815606856237   -1.59723707741625
| 19> H        -2.53467720540082   -4.26719215618859    0.16353625759345
| 20> H        -0.96646835070436   -4.14364276486168   -0.63321048625818
| 21> H        -2.99839771052668   -0.36469060945895    1.21156524947049
| 22> H        -4.56373177196934   -0.49206598467346    2.01832158256939
| 23> H        -4.44526839031720    0.24557163610310    0.41126926312305
| 24> H        -6.16518366815328   -1.38327225712887   -0.52723784726324
| 25> H        -6.32741737389968   -2.04600263746027    1.10383238846133
| 26> H        -5.96349282333049   -3.11859334519011   -0.24905049994512
| 27> *
| 28>
| 29>                          ****END OF INPUT****
 Total Charge           Charge          ....    0
 Multiplicity           Mult            ....    1
 Number of Electrons    NEL             ....   58
Dispersion correction           -0.022866971
FINAL SINGLE POINT ENERGY      -292.602063717002
Dispersion correction            ... done
Dispersion correction           -0.022765790
FINAL SINGLE POINT ENERGY      -292.603652958839
Dispersion correction            ... done
Dispersion correction           -0.022785001
FINAL SINGLE POINT ENERGY      -292.603980856297
Dispersion correction            ... done
FINAL SINGLE POINT ENERGY      -292.604126587171
FINAL SINGLE POINT ENERGY      -292.604184097945
FINAL SINGLE POINT ENERGY      -292.604202903247
FINAL SINGLE POINT ENERGY      -292.604216259738
FINAL SINGLE POINT ENERGY      -292.604229745981
FINAL SINGLE POINT ENERGY      -292.604250558688
FINAL SINGLE POINT ENERGY      -292.604286766558
FINAL SINGLE POINT ENERGY      -292.604305871435
FINAL SINGLE POINT ENERGY      -292.604338100492
Dispersion correction            ... done
Dispersion correction           -0.022988806
FINAL SINGLE POINT ENERGY      -292.604349458492
Dispersion correction            ... done
Dispersion correction           -0.023005648
FINAL SINGLE POINT ENERGY      -292.604355306808
Dispersion correction            ... done
                    ***********************HURRAY********************

CARTESIAN COORDINATES (ANGSTROEM)
---------------------------------
  N     -3.648313   -1.916540   -0.969780
  C     -2.195479   -2.191504   -0.917376
  C     -4.392033   -2.026068    0.302163
  H     -4.064652   -2.573456   -1.633609
  C     -1.626467   -1.989369   -2.323489
  C     -1.829647   -3.584080   -0.377275
  H     -1.753771   -1.435991   -0.256370
  C     -3.945964   -0.936187    1.279610
  H     -4.227754   -3.005767    0.784495
  C     -5.884006   -1.904317   -0.012923
  H     -2.066557   -2.715029   -3.019756
  H     -0.540868   -2.133062   -2.328047
  H     -1.850691   -0.982636   -2.689983
  H     -2.254238   -4.364418   -1.021592
  H     -2.205242   -3.737721    0.639614
  H     -0.741402   -3.713104   -0.355831
  H     -2.895539   -1.050588    1.565608
  H     -4.548686   -0.982656    2.192922
  H     -4.074222    0.053377    0.825413
  H     -6.100637   -0.927642   -0.461008
  H     -6.480230   -2.010136    0.899418
  H     -6.197483   -2.683342   -0.718300

 Multiplicity           Mult            ....    1
 Number of Electrons    NEL             ....   58
 Basis Dimension        Dim             ....  307

ORBITAL ENERGIES
----------------

  NO   OCC          E(Eh)            E(eV)
   0   2.0000     -14.076343      -383.0368
   1   2.0000     -10.005880      -272.2738
   2   2.0000     -10.005714      -272.2693
   3   2.0000      -9.969810      -271.2923
   4   2.0000      -9.969053      -271.2717
   5   2.0000      -9.968164      -271.2475
   6   2.0000      -9.967879      -271.2398
   7   2.0000      -0.835451       -22.7338
   8   2.0000      -0.723385       -19.6843
   9   2.0000      -0.669447       -18.2166
  10   2.0000      -0.629549       -17.1309
  11   2.0000      -0.626541       -17.0491
  12   2.0000      -0.536298       -14.5934
  13   2.0000      -0.511222       -13.9110
  14   2.0000      -0.442008       -12.0277
  15   2.0000      -0.412791       -11.2326
  16   2.0000      -0.404667       -11.0116
  17   2.0000      -0.387670       -10.5490
  18   2.0000      -0.360553        -9.8112
  19   2.0000      -0.357039        -9.7155
  20   2.0000      -0.344957        -9.3868
  21   2.0000      -0.341757        -9.2997
  22   2.0000      -0.331370        -9.0170
  23   2.0000      -0.312862        -8.5134
  24   2.0000      -0.307406        -8.3649
  25   2.0000      -0.295799        -8.0491
  26   2.0000      -0.287956        -7.8357
  27   2.0000      -0.282660        -7.6916
  28   2.0000      -0.186992        -5.0883
  29   0.0000       0.025744         0.7005
  30   0.0000       0.052163         1.4194
  31   0.0000       0.056078         1.5259
  32   0.0000       0.064410         1.7527
  33   0.0000       0.084483         2.2989

MULLIKEN ATOMIC CHARGES
-----------------------
   0 N :   -0.391785
   1 C :    0.049083
   2 C :    0.074017
   3 H :    0.200137
   4 C :   -0.354508
   5 C :   -0.371955
   6 H :    0.078924
   7 C :   -0.357192
   8 H :    0.055668
   9 C :   -0.364208
  10 H :    0.111318
  11 H :    0.117707
  12 H :    0.113478
  13 H :    0.105128
  14 H :    0.129576
  15 H :    0.114806
  16 H :    0.128332
  17 H :    0.115167
  18 H :    0.103082
  19 H :    0.105868
  20 H :    0.117322
  21 H :    0.120035
Sum of atomic charges:   -0.0000000

LOEWDIN ATOMIC CHARGES
----------------------
   0 N :    0.004543
   1 C :   -0.356079
   2 C :   -0.358688
   3 H :    0.174669
   4 C :   -0.291120
   5 C :   -0.296291
   6 H :    0.142139
   7 C :   -0.288448
   8 H :    0.128878
   9 C :   -0.290427
  10 H :    0.119123
  11 H :    0.121039
  12 H :    0.117126
  13 H :    0.118530
  14 H :    0.117109
  15 H :    0.120903
  16 H :    0.117993
  17 H :    0.121849
  18 H :    0.118914
  19 H :    0.118355
  20 H :    0.121295
  21 H :    0.118589

  Mayer bond orders larger than 0.100000
B(  0-N ,  1-C ) :   1.0026 B(  0-N ,  2-C ) :   0.9906 B(  0-N ,  3-H ) :   0.9116
B(  1-C ,  4-C ) :   0.9969 B(  1-C ,  5-C ) :   0.9717 B(  1-C ,  6-H ) :   0.9437
B(  2-C ,  7-C ) :   0.9802 B(  2-C ,  8-H ) :   0.9408 B(  2-C ,  9-C ) :   0.9834
B(  4-C , 10-H ) :   0.9657 B(  4-C , 11-H ) :   0.9672 B(  4-C , 12-H ) :   0.9673
B(  5-C , 13-H ) :   0.9606 B(  5-C , 14-H ) :   0.9667 B(  5-C , 15-H ) :   0.9589
B(  7-C , 16-H ) :   0.9656 B(  7-C , 17-H ) :   0.9632 B(  7-C , 18-H ) :   0.9617
B(  9-C , 19-H ) :   0.9677 B(  9-C , 20-H ) :   0.9675 B(  9-C , 21-H ) :   0.9669

Dispersion correction           -0.023003429
FINAL SINGLE POINT ENERGY      -292.604356137929

DIPOLE MOMENT
-------------
                                X             Y             Z
Electronic contribution:     -0.32417       0.39888      -0.68468
Nuclear contribution   :      0.39927      -0.91199       0.85866
                        -----------------------------------------
Total Dipole Moment    :      0.07510      -0.51311       0.17398
                        -----------------------------------------
Magnitude (a.u.)       :      0.54698
Magnitude (Debye)      :      1.39031

VIBRATIONAL FREQUENCIES
-----------------------

Scaling factor for frequencies =  1.000000000 (already applied!)

   0:         0.00 cm**-1
   1:         0.00 cm**-1
   2:         0.00 cm**-1
   3:         0.00 cm**-1
   4:         0.00 cm**-1
   5:         0.00 cm**-1
   6:        29.73 cm**-1
   7:       106.99 cm**-1
   8:       175.73 cm**-1
   9:       221.17 cm**-1
  10:       225.41 cm**-1
  11:       238.74 cm**-1
  12:       254.40 cm**-1
  13:       300.25 cm**-1
  14:       369.04 cm**-1
  15:       381.41 cm**-1
  16:       414.79 cm**-1
  17:       464.63 cm**-1
  18:       483.94 cm**-1
  19:       734.99 cm**-1
  20:       824.33 cm**-1
  21:       841.15 cm**-1
  22:       910.31 cm**-1
  23:       912.45 cm**-1
  24:       920.40 cm**-1
  25:       931.23 cm**-1
  26:       945.04 cm**-1
  27:      1002.46 cm**-1
  28:      1081.85 cm**-1
  29:      1109.38 cm**-1
  30:      1140.50 cm**-1
  31:      1165.12 cm**-1
  32:      1177.91 cm**-1
  33:      1195.98 cm**-1
  34:      1318.03 cm**-1
  35:      1327.39 cm**-1
  36:      1338.55 cm**-1
  37:      1356.59 cm**-1
  38:      1376.38 cm**-1
  39:      1379.67 cm**-1
  40:      1392.10 cm**-1
  41:      1393.00 cm**-1
  42:      1452.83 cm**-1
  43:      1469.09 cm**-1
  44:      1471.74 cm**-1
  45:      1472.91 cm**-1
  46:      1475.66 cm**-1
  47:      1480.28 cm**-1
  48:      1487.96 cm**-1
  49:      1490.25 cm**-1
  50:      1495.46 cm**-1
  51:      2897.76 cm**-1
  52:      2983.57 cm**-1
  53:      2986.35 cm**-1
  54:      2986.99 cm**-1
  55:      2993.51 cm**-1
  56:      2999.50 cm**-1
  57:      3042.52 cm**-1
  58:      3047.54 cm**-1
  59:      3050.38 cm**-1
  60:      3055.35 cm**-1
  61:      3056.80 cm**-1
  62:      3061.58 cm**-1
  63:      3062.85 cm**-1
  64:      3066.42 cm**-1
  65:      3392.82 cm**-1

IR SPECTRUM
-----------

 Mode   freq       eps      Int      T**2         TX        TY        TZ
       cm**-1   L/(mol*cm) km/mol    a.u.
----------------------------------------------------------------------------
  6:     29.73   0.000027    0.13  0.000278  ( 0.015179  0.002415 -0.006478)
  7:    106.99   0.000344    1.74  0.001002  (-0.005768 -0.021635 -0.022376)
  8:    175.73   0.000278    1.40  0.000493  (-0.009271  0.013605 -0.014902)
  9:    221.17   0.000019    0.10  0.000027  ( 0.000960 -0.001907  0.004738)
 10:    225.41   0.000019    0.09  0.000026  ( 0.003083 -0.001512  0.003722)
 11:    238.74   0.000019    0.09  0.000024  ( 0.004861  0.000767  0.000200)
 12:    254.40   0.000131    0.66  0.000161  ( 0.004681  0.006575  0.009802)
 13:    300.25   0.000057    0.29  0.000060  ( 0.000664  0.002895 -0.007132)
 14:    369.04   0.000802    4.05  0.000678  (-0.011265 -0.007465 -0.022262)
 15:    381.41   0.000097    0.49  0.000079  ( 0.002878 -0.000589  0.008416)
 16:    414.79   0.000509    2.57  0.000383  ( 0.015234  0.001626 -0.012176)
 17:    464.63   0.000055    0.28  0.000037  (-0.003924 -0.001633  0.004352)
 18:    483.94   0.003029   15.31  0.001953  ( 0.012529 -0.010852  0.040966)
 19:    734.99   0.017316   87.51  0.007352  ( 0.032806 -0.049795  0.061614)
 20:    824.33   0.002118   10.70  0.000802  ( 0.016812 -0.017065  0.015093)
 21:    841.15   0.008243   41.66  0.003058  ( 0.020130 -0.029153  0.042464)
 22:    910.31   0.000438    2.21  0.000150  (-0.009855 -0.004123  0.006001)
 23:    912.45   0.000153    0.77  0.000052  (-0.001926  0.001948 -0.006702)
 24:    920.40   0.000359    1.82  0.000122  ( 0.006504 -0.002637  0.008522)
 25:    931.23   0.000063    0.32  0.000021  ( 0.000248  0.001508  0.004338)
 26:    945.04   0.000328    1.66  0.000108  ( 0.006524 -0.000410 -0.008103)
 27:   1002.46   0.003809   19.25  0.001186  ( 0.030027 -0.013014 -0.010716)
 28:   1081.85   0.002683   13.56  0.000774  ( 0.022236 -0.015416 -0.006471)
 29:   1109.38   0.001033    5.22  0.000291  ( 0.002600  0.014940 -0.007786)
 30:   1140.50   0.011593   58.59  0.003172  ( 0.031257  0.018012 -0.043251)
 31:   1165.12   0.012429   62.81  0.003329  (-0.051952  0.016777  0.018667)
 32:   1177.91   0.000974    4.92  0.000258  ( 0.011618 -0.008223 -0.007442)
 33:   1195.98   0.000832    4.21  0.000217  ( 0.011881  0.007493  0.004458)
 34:   1318.03   0.000788    3.98  0.000187  ( 0.013251 -0.002779 -0.001814)
 35:   1327.39   0.006459   32.64  0.001519  ( 0.023936 -0.005583 -0.030240)
 36:   1338.55   0.002364   11.95  0.000551  (-0.013313  0.019202 -0.002291)
 37:   1356.59   0.001790    9.05  0.000412  ( 0.005899 -0.016434 -0.010340)
 38:   1376.38   0.001395    7.05  0.000316  (-0.002116 -0.017635 -0.000898)
 39:   1379.67   0.001942    9.82  0.000439  (-0.009378 -0.000298 -0.018743)
 40:   1392.10   0.002209   11.16  0.000495  ( 0.015334 -0.014752 -0.006514)
 41:   1393.00   0.002288   11.56  0.000513  ( 0.010770 -0.015150 -0.012926)
 42:   1452.83   0.002969   15.00  0.000638  (-0.024351 -0.004868  0.004578)
 43:   1469.09   0.000284    1.43  0.000060  ( 0.003147  0.006272  0.003329)
 44:   1471.74   0.000196    0.99  0.000042  (-0.004672 -0.004416 -0.000537)
 45:   1472.91   0.001676    8.47  0.000355  ( 0.002857  0.018494 -0.002236)
 46:   1475.66   0.000684    3.46  0.000145  (-0.002330 -0.001689  0.011677)
 47:   1480.28   0.000771    3.89  0.000162  ( 0.006481 -0.010617 -0.002780)
 48:   1487.96   0.001132    5.72  0.000237  (-0.011046 -0.010732 -0.000404)
 49:   1490.25   0.001595    8.06  0.000334  (-0.014119 -0.006780  0.009422)
 50:   1495.46   0.003881   19.61  0.000810  (-0.021491 -0.000201 -0.018651)
 51:   2897.76   0.021105  106.65  0.002273  (-0.002946 -0.038673  0.027722)
 52:   2983.57   0.008048   40.67  0.000842  (-0.003746  0.022111 -0.018407)
 53:   2986.35   0.006234   31.50  0.000651  ( 0.015002 -0.010908 -0.017532)
 54:   2986.99   0.010390   52.50  0.001085  (-0.026684 -0.008616 -0.017296)
 55:   2993.51   0.001654    8.36  0.000172  ( 0.005864 -0.011697 -0.001107)
 56:   2999.50   0.010733   54.24  0.001117  ( 0.000182  0.027283  0.019295)
 57:   3042.52   0.002367   11.96  0.000243  ( 0.010710 -0.003724  0.010686)
 58:   3047.54   0.011146   56.33  0.001141  ( 0.003819 -0.031217 -0.012339)
 59:   3050.38   0.024877  125.72  0.002545  (-0.035590 -0.033513 -0.012458)
 60:   3055.35   0.005209   26.33  0.000532  ( 0.010900 -0.017355  0.010586)
 61:   3056.80   0.011463   57.93  0.001170  ( 0.013647 -0.001278 -0.031343)
 62:   3061.58   0.012670   64.03  0.001291  ( 0.021362 -0.013280  0.025666)
 63:   3062.85   0.019768   99.90  0.002014  ( 0.031113  0.009698 -0.030855)
 64:   3066.42   0.011435   57.79  0.001164  ( 0.021916 -0.025600  0.005289)
 65:   3392.82   0.000350    1.77  0.000032  (-0.001341 -0.002775 -0.004764)

--------------------------
THERMOCHEMISTRY AT 298.15K
--------------------------

Temperature         ... 298.15 K
Pressure            ... 1.00 atm
Total Mass          ... 101.19 AMU

Throughout the following assumptions are being made:
  (1) The electronic state is orbitally nondegenerate
  (2) There are no thermally accessible electronically excited states
  (3) Hindered rotations indicated by low frequency modes are not
      treated as such but are treated as vibrations and this may
      cause some error
  (4) All equations used are the standard statistical mechanics
      equations for an ideal gas
  (5) All vibrations are strictly harmonic

freq.      29.73  E(vib)   ...       0.55
freq.     106.99  E(vib)   ...       0.45
freq.     175.73  E(vib)   ...       0.38
freq.     221.17  E(vib)   ...       0.33
freq.     225.41  E(vib)   ...       0.33
freq.     238.74  E(vib)   ...       0.32
freq.     254.40  E(vib)   ...       0.30
freq.     300.25  E(vib)   ...       0.26
freq.     369.04  E(vib)   ...       0.21
freq.     381.41  E(vib)   ...       0.21
freq.     414.79  E(vib)   ...       0.19
freq.     464.63  E(vib)   ...       0.16
freq.     483.94  E(vib)   ...       0.15
freq.     734.99  E(vib)   ...       0.06
freq.     824.33  E(vib)   ...       0.04
freq.     841.15  E(vib)   ...       0.04
freq.     910.31  E(vib)   ...       0.03
freq.     912.45  E(vib)   ...       0.03
freq.     920.40  E(vib)   ...       0.03
freq.     931.23  E(vib)   ...       0.03
freq.     945.04  E(vib)   ...       0.03
freq.    1002.46  E(vib)   ...       0.02
freq.    1081.85  E(vib)   ...       0.02
freq.    1109.38  E(vib)   ...       0.02
freq.    1140.50  E(vib)   ...       0.01
freq.    1165.12  E(vib)   ...       0.01
freq.    1177.91  E(vib)   ...       0.01
freq.    1195.98  E(vib)   ...       0.01
freq.    1318.03  E(vib)   ...       0.01
freq.    1327.39  E(vib)   ...       0.01
freq.    1338.55  E(vib)   ...       0.01
freq.    1356.59  E(vib)   ...       0.01
freq.    1376.38  E(vib)   ...       0.01
freq.    1379.67  E(vib)   ...       0.01
freq.    1392.10  E(vib)   ...       0.00
freq.    1393.00  E(vib)   ...       0.00
freq.    1452.83  E(vib)   ...       0.00
freq.    1469.09  E(vib)   ...       0.00
freq.    1471.74  E(vib)   ...       0.00
freq.    1472.91  E(vib)   ...       0.00
freq.    1475.66  E(vib)   ...       0.00
freq.    1480.28  E(vib)   ...       0.00
freq.    1487.96  E(vib)   ...       0.00
freq.    1490.25  E(vib)   ...       0.00
freq.    1495.46  E(vib)   ...       0.00
freq.    2897.76  E(vib)   ...       0.00
freq.    2983.57  E(vib)   ...       0.00
freq.    2986.35  E(vib)   ...       0.00
freq.    2986.99  E(vib)   ...       0.00
freq.    2993.51  E(vib)   ...       0.00
freq.    2999.50  E(vib)   ...       0.00
freq.    3042.52  E(vib)   ...       0.00
freq.    3047.54  E(vib)   ...       0.00
freq.    3050.38  E(vib)   ...       0.00
freq.    3055.35  E(vib)   ...       0.00
freq.    3056.80  E(vib)   ...       0.00
freq.    3061.58  E(vib)   ...       0.00
freq.    3062.85  E(vib)   ...       0.00
freq.    3066.42  E(vib)   ...       0.00
freq.    3392.82  E(vib)   ...       0.00

------------
INNER ENERGY
------------

The inner energy is: U= E(el) + E(ZPE) + E(vib) + E(rot) + E(trans)
    E(el)   - is the total energy from the electronic structure calculation
              = E(kin-el) + E(nuc-el) + E(el-el) + E(nuc-nuc)
    E(ZPE)  - the the zero temperature vibrational energy from the frequency calculation
    E(vib)  - the the finite temperature correction to E(ZPE) due to population
              of excited vibrational states
    E(rot)  - is the rotational thermal energy
    E(trans)- is the translational thermal energy

Summary of contributions to the inner energy U:
Electronic energy                ...   -292.60435614 Eh
Zero point energy                ...      0.20143803 Eh     126.40 kcal/mol
Thermal vibrational correction   ...      0.00687180 Eh       4.31 kcal/mol
Thermal rotational correction    ...      0.00141627 Eh       0.89 kcal/mol
Thermal translational correction ...      0.00141627 Eh       0.89 kcal/mol
-----------------------------------------------------------------------
Total thermal energy                   -292.39321376 Eh

Summary of corrections to the electronic energy:
(perhaps to be used in another calculation)
Total thermal correction                  0.00970434 Eh       6.09 kcal/mol
Non-thermal (ZPE) correction              0.20143803 Eh     126.40 kcal/mol
-----------------------------------------------------------------------
Total correction                          0.21114238 Eh     132.49 kcal/mol

--------
ENTHALPY
--------

The enthalpy is H = U + kB*T
                kB is Boltzmann's constant
Total free energy                 ...   -292.39321376 Eh
Thermal Enthalpy correction       ...      0.00094421 Eh       0.59 kcal/mol
-----------------------------------------------------------------------
Total Enthalpy                    ...   -292.39226955 Eh

Note: Only C1 symmetry has been detected, increase convergence thresholds
      if your molecule has a higher symmetry. Symmetry factor of 1.0 is
      used for the rotational entropy correction.

Note: Rotational entropy computed according to Herzberg
Infrared and Raman Spectra, Chapter V,1, Van Nostrand Reinhold, 1945
Point Group:  C1, Symmetry Number:   1
Rotational constants in cm-1:     0.137357     0.048036     0.045382

Vibrational entropy computed according to the QRRHO of S. Grimme
Chem.Eur.J. 2012 18 9955

-------
ENTROPY
-------

The entropy contributions are T*S = T*(S(el)+S(vib)+S(rot)+S(trans))
     S(el)   - electronic entropy
     S(vib)  - vibrational entropy
     S(rot)  - rotational entropy
     S(trans)- translational entropy
The entropies will be listed as multiplied by the temperature to get
units of energy

Electronic entropy                ...      0.00000000 Eh      0.00 kcal/mol
Vibrational entropy               ...      0.01178408 Eh      7.39 kcal/mol
Rotational entropy                ...      0.01334117 Eh      8.37 kcal/mol
Translational entropy             ...      0.01888804 Eh     11.85 kcal/mol
-----------------------------------------------------------------------
Final entropy term                ...      0.04401329 Eh     27.62 kcal/mol

In case the symmetry of your molecule has not been determined correctly
or in case you have a reason to use a different symmetry number we print
out the resulting rotational entropy values for sn=1,12 :
 --------------------------------------------------------
|  sn= 1 | S(rot)=       0.01334117 Eh      8.37 kcal/mol|
|  sn= 2 | S(rot)=       0.01268672 Eh      7.96 kcal/mol|
|  sn= 3 | S(rot)=       0.01230389 Eh      7.72 kcal/mol|

                             ****ORCA TERMINATED NORMALLY****
TOTAL RUN TIME: 0 days 1 hours 35 minutes 37 seconds 33 msec
