                         Program Version 5.0.2 -  RELEASE  -
|  1> ! TPSS D3BJ def2-TZVP RI def2/J CPCM(THF)
|  2> ! Opt numfreq Pal2
|  3>
|  4> * xyz 0 1
|  5> O       -0.3644166819      1.2309282245     -0.2000815217
|  6> H        0.6146330111      1.3455669964     -0.1056197479
|  7> Li      -1.0950552472      2.5505350261      0.8872678738
|  8> *
|  9>
| 10>                          ****END OF INPUT****
 Total Charge           Charge          ....    0
 Multiplicity           Mult            ....    1
 Number of Electrons    NEL             ....   12
Dispersion correction           -0.000794754
FINAL SINGLE POINT ENERGY       -83.432073438764
Dispersion correction            ... done
Dispersion correction           -0.000794390
FINAL SINGLE POINT ENERGY       -83.433258199765
Dispersion correction            ... done
Dispersion correction           -0.000794024
FINAL SINGLE POINT ENERGY       -83.435131209534
Dispersion correction            ... done
FINAL SINGLE POINT ENERGY       -83.436436021640
FINAL SINGLE POINT ENERGY       -83.436927882982
FINAL SINGLE POINT ENERGY       -83.437230592931
FINAL SINGLE POINT ENERGY       -83.437590122309
FINAL SINGLE POINT ENERGY       -83.438227146071
FINAL SINGLE POINT ENERGY       -83.439067625526
FINAL SINGLE POINT ENERGY       -83.439557647214
FINAL SINGLE POINT ENERGY       -83.439676748219
FINAL SINGLE POINT ENERGY       -83.439718463172
FINAL SINGLE POINT ENERGY       -83.438900376353
FINAL SINGLE POINT ENERGY       -83.439714413901
Dispersion correction            ... done
Dispersion correction           -0.000793777
FINAL SINGLE POINT ENERGY       -83.439720224422
Dispersion correction            ... done
Dispersion correction           -0.000793727
FINAL SINGLE POINT ENERGY       -83.439720904251
Dispersion correction            ... done
                    ***********************HURRAY********************

CARTESIAN COORDINATES (ANGSTROEM)
---------------------------------
  O     -0.101911    1.605563    0.108616
  H      0.550211    1.061790   -0.339451
  Li    -1.293139    2.459677    0.812401

 Multiplicity           Mult            ....    1
 Number of Electrons    NEL             ....   12
 Basis Dimension        Dim             ....   51

ORBITAL ENERGIES
----------------

  NO   OCC          E(Eh)            E(eV)
   0   2.0000     -18.786513      -511.2070
   1   2.0000      -1.881114       -51.1877
   2   2.0000      -0.809839       -22.0368
   3   2.0000      -0.349860        -9.5202
   4   2.0000      -0.194526        -5.2933
   5   2.0000      -0.194507        -5.2928
   6   0.0000      -0.024814        -0.6752
   7   0.0000       0.053035         1.4432
   8   0.0000       0.055087         1.4990
   9   0.0000       0.055094         1.4992
  10   0.0000       0.116513         3.1705

MULLIKEN ATOMIC CHARGES
-----------------------
   0 O :   -1.075371
   1 H :    0.303988
   2 Li:    0.771383
Sum of atomic charges:   -0.0000000

LOEWDIN ATOMIC CHARGES
----------------------
   0 O :   -0.723633
   1 H :    0.118983
   2 Li:    0.604649

  Mayer bond orders larger than 0.100000
B(  0-O ,  1-H ) :   0.9083 B(  0-O ,  2-Li) :   0.4435

Dispersion correction           -0.000793728
FINAL SINGLE POINT ENERGY       -83.439720949385

DIPOLE MOMENT
-------------
                                X             Y             Z
Electronic contribution:     -3.08251       2.23368       1.83897
Nuclear contribution   :      1.68599      -1.28013      -1.05482
                        -----------------------------------------
Total Dipole Moment    :     -1.39652       0.95355       0.78415
                        -----------------------------------------
Magnitude (a.u.)       :      1.86398
Magnitude (Debye)      :      4.73786

VIBRATIONAL FREQUENCIES
-----------------------

Scaling factor for frequencies =  1.000000000 (already applied!)

   0:         0.00 cm**-1
   1:         0.00 cm**-1
   2:         0.00 cm**-1
   3:         0.00 cm**-1
   4:         0.00 cm**-1
   5:         0.00 cm**-1
   6:       188.76 cm**-1
   7:       828.26 cm**-1
   8:      3856.65 cm**-1

IR SPECTRUM
-----------

 Mode   freq       eps      Int      T**2         TX        TY        TZ
       cm**-1   L/(mol*cm) km/mol    a.u.
----------------------------------------------------------------------------
  6:    188.76   0.043986  222.29  0.072720  (-0.204750 -0.135234 -0.111846)
  7:    828.26   0.038523  194.68  0.014514  ( 0.085601 -0.065481 -0.053843)
  8:   3856.65   0.007456   37.68  0.000603  ( 0.017327 -0.013406 -0.011107)

--------------------------
THERMOCHEMISTRY AT 298.15K
--------------------------

Temperature         ... 298.15 K
Pressure            ... 1.00 atm
Total Mass          ... 23.95 AMU

Throughout the following assumptions are being made:
  (1) The electronic state is orbitally nondegenerate
  (2) There are no thermally accessible electronically excited states
  (3) Hindered rotations indicated by low frequency modes are not
      treated as such but are treated as vibrations and this may
      cause some error
  (4) All equations used are the standard statistical mechanics
      equations for an ideal gas
  (5) All vibrations are strictly harmonic

freq.     188.76  E(vib)   ...       0.36
freq.     828.26  E(vib)   ...       0.04
freq.    3856.65  E(vib)   ...       0.00

------------
INNER ENERGY
------------

The inner energy is: U= E(el) + E(ZPE) + E(vib) + E(rot) + E(trans)
    E(el)   - is the total energy from the electronic structure calculation
              = E(kin-el) + E(nuc-el) + E(el-el) + E(nuc-nuc)
    E(ZPE)  - the the zero temperature vibrational energy from the frequency calculation
    E(vib)  - the the finite temperature correction to E(ZPE) due to population
              of excited vibrational states
    E(rot)  - is the rotational thermal energy
    E(trans)- is the translational thermal energy

Summary of contributions to the inner energy U:
Electronic energy                ...    -83.43972095 Eh
Zero point energy                ...      0.01110303 Eh       6.97 kcal/mol
Thermal vibrational correction   ...      0.00064922 Eh       0.41 kcal/mol
Thermal rotational correction    ...      0.00141627 Eh       0.89 kcal/mol
Thermal translational correction ...      0.00141627 Eh       0.89 kcal/mol
-----------------------------------------------------------------------
Total thermal energy                    -83.42513616 Eh

Summary of corrections to the electronic energy:
(perhaps to be used in another calculation)
Total thermal correction                  0.00348177 Eh       2.18 kcal/mol
Non-thermal (ZPE) correction              0.01110303 Eh       6.97 kcal/mol
-----------------------------------------------------------------------
Total correction                          0.01458479 Eh       9.15 kcal/mol

--------
ENTHALPY
--------

The enthalpy is H = U + kB*T
                kB is Boltzmann's constant
Total free energy                 ...    -83.42513616 Eh
Thermal Enthalpy correction       ...      0.00094421 Eh       0.59 kcal/mol
-----------------------------------------------------------------------
Total Enthalpy                    ...    -83.42419195 Eh

Note: Rotational entropy computed according to Herzberg
Infrared and Raman Spectra, Chapter V,1, Van Nostrand Reinhold, 1945
Point Group:  Cs, Symmetry Number:   1
Rotational constants in cm-1:  3865.546732     1.136929     1.136595

Vibrational entropy computed according to the QRRHO of S. Grimme
Chem.Eur.J. 2012 18 9955

-------
ENTROPY
-------

The entropy contributions are T*S = T*(S(el)+S(vib)+S(rot)+S(trans))
     S(el)   - electronic entropy
     S(vib)  - vibrational entropy
     S(rot)  - rotational entropy
     S(trans)- translational entropy
The entropies will be listed as multiplied by the temperature to get
units of energy

Electronic entropy                ...      0.00000000 Eh      0.00 kcal/mol
Vibrational entropy               ...      0.00115196 Eh      0.72 kcal/mol
Rotational entropy                ...      0.00549038 Eh      3.45 kcal/mol
Translational entropy             ...      0.01684699 Eh     10.57 kcal/mol
-----------------------------------------------------------------------
Final entropy term                ...      0.02348933 Eh     14.74 kcal/mol

In case the symmetry of your molecule has not been determined correctly
or in case you have a reason to use a different symmetry number we print
out the resulting rotational entropy values for sn=1,12 :
 --------------------------------------------------------
|  sn= 1 | S(rot)=       0.00549038 Eh      3.45 kcal/mol|
|  sn= 2 | S(rot)=       0.00483592 Eh      3.03 kcal/mol|
|  sn= 3 | S(rot)=       0.00445309 Eh      2.79 kcal/mol|
|  sn= 4 | S(rot)=       0.00418147 Eh      2.62 kcal/mol|
|  sn= 5 | S(rot)=       0.00397078 Eh      2.49 kcal/mol|
|  sn= 6 | S(rot)=       0.00379864 Eh      2.38 kcal/mol|
|  sn= 7 | S(rot)=       0.00365309 Eh      2.29 kcal/mol|
|  sn= 8 | S(rot)=       0.00352701 Eh      2.21 kcal/mol|
|  sn= 9 | S(rot)=       0.00341580 Eh      2.14 kcal/mol|
|  sn=10 | S(rot)=       0.00331632 Eh      2.08 kcal/mol|
|  sn=11 | S(rot)=       0.00322633 Eh      2.02 kcal/mol|
|  sn=12 | S(rot)=       0.00314418 Eh      1.97 kcal/mol|
 --------------------------------------------------------

-------------------
GIBBS FREE ENERGY
-------------------

The Gibbs free energy is G = H - T*S

Total enthalpy                    ...    -83.42419195 Eh
Total entropy correction          ...     -0.02348933 Eh    -14.74 kcal/mol
-----------------------------------------------------------------------
Final Gibbs free energy         ...    -83.44768128 Eh

For completeness - the Gibbs free energy minus the electronic energy
G-E(el)                           ...     -0.00796033 Eh     -5.00 kcal/mol

                             ****ORCA TERMINATED NORMALLY****
TOTAL RUN TIME: 0 days 0 hours 2 minutes 49 seconds 954 msec
