                         Program Version 5.0.2 -  RELEASE  -
|  1> ! PW6B95 D3BJ def2-QZVP RIJK def2/JK tightSCF CPCM(THF)
|  2> ! sp Pal2
|  3>
|  4> * xyz 0 1
|  5>  O   -0.10191081837847      1.60556314875622      0.10861577955011
|  6>   H   0.55021087432758      1.06178988495744     -0.33945066646024
|  7>   Li  -1.29313897394911      2.45967721328634      0.81240149111013
|  8> *
|  9>
| 10>                          ****END OF INPUT****

CARTESIAN COORDINATES (ANGSTROEM)
---------------------------------
  O     -0.101911    1.605563    0.108616
  H      0.550211    1.061790   -0.339451
  Li    -1.293139    2.459677    0.812401

 Total Charge           Charge          ....    0
 Multiplicity           Mult            ....    1
 Number of Electrons    NEL             ....   12
 Basis Dimension        Dim             ....  122

ORBITAL ENERGIES
----------------

  NO   OCC          E(Eh)            E(eV)
   0   2.0000     -19.200405      -522.4696
   1   2.0000      -2.025215       -55.1089
   2   2.0000      -0.907370       -24.6908
   3   2.0000      -0.417264       -11.3543
   4   2.0000      -0.262209        -7.1351
   5   2.0000      -0.262172        -7.1341
   6   0.0000      -0.016787        -0.4568
   7   0.0000       0.021575         0.5871
   8   0.0000       0.025313         0.6888
   9   0.0000       0.025330         0.6893
  10   0.0000       0.065633         1.7860

MULLIKEN ATOMIC CHARGES
-----------------------
   0 O :   -0.663119
   1 H :    0.166055
   2 Li:    0.497063
Sum of atomic charges:    0.0000000

LOEWDIN ATOMIC CHARGES
----------------------
   0 O :    0.387945
   1 H :   -0.439701
   2 Li:    0.051756

  Mayer bond orders larger than 0.100000
B(  0-O ,  1-H ) :   1.0008 B(  0-O ,  2-Li) :   0.9132

Dispersion correction           -0.000324928
FINAL SINGLE POINT ENERGY       -83.540059138743

DIPOLE MOMENT
-------------
                                X             Y             Z
Electronic contribution:     -3.14377       2.28230       1.87820
Nuclear contribution   :      1.68599      -1.28013      -1.05482
                        -----------------------------------------
Total Dipole Moment    :     -1.45777       1.00217       0.82339
                        -----------------------------------------
Magnitude (a.u.)       :      1.95126
Magnitude (Debye)      :      4.95971

Rotational constants in cm-1:  3865.546732     1.136929     1.136595
Rotational constants in MHz : 115886175.624525 34084.270237 34074.248369

                             ****ORCA TERMINATED NORMALLY****
TOTAL RUN TIME: 0 days 0 hours 0 minutes 13 seconds 184 msec
