                         Program Version 5.0.2 -  RELEASE  -
|  1> ! TPSS D3BJ def2-TZVP RI def2/J CPCM(THF)
|  2> ! Opt numfreq Pal8
|  3>
|  4> * xyz 0 1
|  5> C        -2.65053088809814   -0.37637556645990    0.51839012630959
|  6> C        -2.26911470275150   -1.70062327148106    0.29858264846829
|  7> C        -0.94495937239237   -2.00481384026082   -0.01792251089273
|  8> C        -0.01263734654152   -0.99138997063801   -0.11635776060713
|  9> C        -0.39085193067083    0.33557826645437    0.10007627120831
| 10> C        -1.71786614479268    0.63478949717502    0.42111625369737
| 11> H        -1.99067135096991    1.66589181665878    0.58728707700073
| 12> H        -0.66212854168963   -3.03128311651749   -0.18629503539515
| 13> H         1.01325035287807   -1.22051976000627   -0.36290399818558
| 14> C         0.59820940436621    1.41398353044459   -0.01307101208456
| 15> H         1.61930504506623    1.06502428494643   -0.25945877848321
| 16> O         0.36944119712716    2.59073012714222    0.13817123787033
| 17> H        -3.68082256211529   -0.16706824430873    0.76275272199669
| 18> C        -3.30736203586490   -2.75842776412496    0.40158873835877
| 19> O        -2.81061936485280   -3.98747831695468    0.25747395917713
| 20> C        -3.73700789863821   -5.06941264439183    0.33666219035764
| 21> H        -3.16023523850131   -5.96826579745684    0.13810154926425
| 22> H        -4.52888147826397   -4.94186767888497   -0.40335666631329
| 23> H        -4.18561381574535   -5.10748004358220    1.33092641429730
| 24> O        -4.48355404274924   -2.53661387665367    0.59265772215526
| 25> *
| 26>
| 27>                          ****END OF INPUT****
 Total Charge           Charge          ....    0
 Multiplicity           Mult            ....    1
 Number of Electrons    NEL             ....   86
Dispersion correction           -0.026687105
FINAL SINGLE POINT ENERGY      -573.800224322623
Dispersion correction            ... done
Dispersion correction           -0.026569388
FINAL SINGLE POINT ENERGY      -573.801760488607
Dispersion correction            ... done
Dispersion correction           -0.026546085
FINAL SINGLE POINT ENERGY      -573.801955145452
Dispersion correction            ... done
FINAL SINGLE POINT ENERGY      -573.801955617968
FINAL SINGLE POINT ENERGY      -573.802011151350
FINAL SINGLE POINT ENERGY      -573.801980173962
FINAL SINGLE POINT ENERGY      -573.802020197125
Dispersion correction            ... done
Dispersion correction           -0.026555157
FINAL SINGLE POINT ENERGY      -573.802022173802
Dispersion correction            ... done
Dispersion correction           -0.026554493
FINAL SINGLE POINT ENERGY      -573.802025512064
Dispersion correction            ... done
                    ***********************HURRAY********************

CARTESIAN COORDINATES (ANGSTROEM)
---------------------------------
  C     -2.659556   -0.374531    0.508545
  C     -2.264102   -1.707439    0.306346
  C     -0.930013   -2.007925   -0.001311
  C     -0.000732   -0.978272   -0.105045
  C     -0.394313    0.352247    0.096425
  C     -1.731740    0.650168    0.404463
  H     -2.022958    1.684705    0.557870
  H     -0.628994   -3.037437   -0.156645
  H      1.037243   -1.198165   -0.342732
  C      0.618972    1.419956   -0.021609
  H      1.641018    1.065731   -0.268801
  O      0.394125    2.613096    0.132205
  H     -3.697510   -0.165384    0.745304
  C     -3.303696   -2.769885    0.430152
  O     -2.804676   -4.003601    0.211002
  C     -3.766664   -5.089286    0.316022
  H     -3.195105   -5.991204    0.103703
  H     -4.564439   -4.946513   -0.415682
  H     -4.183522   -5.115480    1.324919
  O     -4.475991   -2.556404    0.699292

 Multiplicity           Mult            ....    1
 Number of Electrons    NEL             ....   86
 Basis Dimension        Dim             ....  420

ORBITAL ENERGIES
----------------

  NO   OCC          E(Eh)            E(eV)
   0   2.0000     -18.936972      -515.3012
   1   2.0000     -18.889477      -514.0088
   2   2.0000     -18.880580      -513.7667
   3   2.0000     -10.118485      -275.3380
   4   2.0000     -10.077861      -274.2325
   5   2.0000     -10.041167      -273.2341
   6   2.0000     -10.023603      -272.7561
   7   2.0000     -10.014505      -272.5085
   8   2.0000     -10.012968      -272.4667
   9   2.0000     -10.011421      -272.4246
  10   2.0000     -10.010029      -272.3867
  11   2.0000     -10.009590      -272.3748
  12   2.0000      -1.039466       -28.2853
  13   2.0000      -0.980779       -26.6884
  14   2.0000      -0.954711       -25.9790
  15   2.0000      -0.820705       -22.3325
  16   2.0000      -0.739201       -20.1147
  17   2.0000      -0.713212       -19.4075
  18   2.0000      -0.678341       -18.4586
  19   2.0000      -0.620959       -16.8971
  20   2.0000      -0.578919       -15.7532
  21   2.0000      -0.545565       -14.8456
  22   2.0000      -0.526467       -14.3259
  23   2.0000      -0.496936       -13.5223
  24   2.0000      -0.456633       -12.4256
  25   2.0000      -0.444766       -12.1027
  26   2.0000      -0.443013       -12.0550
  27   2.0000      -0.422508       -11.4970
  28   2.0000      -0.416635       -11.3372
  29   2.0000      -0.399172       -10.8620
  30   2.0000      -0.395318       -10.7571
  31   2.0000      -0.384905       -10.4738
  32   2.0000      -0.383975       -10.4485
  33   2.0000      -0.370511       -10.0821
  34   2.0000      -0.348343        -9.4789
  35   2.0000      -0.335469        -9.1286
  36   2.0000      -0.328520        -8.9395
  37   2.0000      -0.317965        -8.6523
  38   2.0000      -0.278363        -7.5746
  39   2.0000      -0.254222        -6.9177
  40   2.0000      -0.251564        -6.8454
  41   2.0000      -0.249923        -6.8007
  42   2.0000      -0.229753        -6.2519
  43   0.0000      -0.118002        -3.2110
  44   0.0000      -0.055863        -1.5201
  45   0.0000      -0.046468        -1.2645
  46   0.0000       0.024088         0.6555
  47   0.0000       0.038382         1.0444

MULLIKEN ATOMIC CHARGES
-----------------------
   0 C :   -0.154842
   1 C :    0.136199
   2 C :   -0.186123
   3 C :   -0.145227
   4 C :    0.170694
   5 C :   -0.174613
   6 H :    0.133882
   7 H :    0.141708
   8 H :    0.140067
   9 C :    0.082841
  10 H :    0.102174
  11 O :   -0.326686
  12 H :    0.139387
  13 C :    0.322136
  14 O :   -0.223329
  15 C :   -0.235176
  16 H :    0.154122
  17 H :    0.150045
  18 H :    0.150119
  19 O :   -0.377379
Sum of atomic charges:    0.0000000

LOEWDIN ATOMIC CHARGES
----------------------
   0 C :   -0.069966
   1 C :   -0.104797
   2 C :   -0.078118
   3 C :   -0.075913
   4 C :   -0.147188
   5 C :   -0.068021
   6 H :    0.156981
   7 H :    0.157292
   8 H :    0.158495
   9 C :   -0.243283
  10 H :    0.125803
  11 O :    0.072844
  12 H :    0.158641
  13 C :   -0.438826
  14 O :    0.246780
  15 C :   -0.282327
  16 H :    0.118051
  17 H :    0.116714
  18 H :    0.116710
  19 O :    0.080129

  Mayer bond orders larger than 0.100000
B(  0-C ,  1-C ) :   1.3086 B(  0-C ,  5-C ) :   1.4169 B(  0-C , 12-H ) :   0.9781
B(  1-C ,  2-C ) :   1.3405 B(  1-C , 13-C ) :   1.0065 B(  1-C , 14-O ) :  -0.1085
B(  2-C ,  3-C ) :   1.3968 B(  2-C ,  7-H ) :   0.9792 B(  3-C ,  4-C ) :   1.3024
B(  3-C ,  8-H ) :   0.9745 B(  4-C ,  5-C ) :   1.2641 B(  4-C ,  9-C ) :   0.9796
B(  4-C , 11-O ) :  -0.1165 B(  5-C ,  6-H ) :   0.9870 B(  9-C , 10-H ) :   0.9748
B(  9-C , 11-O ) :   2.0449 B( 13-C , 14-O ) :   1.2402 B( 13-C , 19-O ) :   1.9361
B( 14-O , 15-C ) :   0.8984 B( 15-C , 16-H ) :   0.9617 B( 15-C , 17-H ) :   0.9633
B( 15-C , 18-H ) :   0.9634

Dispersion correction           -0.026554285
FINAL SINGLE POINT ENERGY      -573.802026000343

DIPOLE MOMENT
-------------
                                X             Y             Z
Electronic contribution:      1.56782       5.12820       0.13408
Nuclear contribution   :     -0.98781      -7.13992      -0.43949
                        -----------------------------------------
Total Dipole Moment    :      0.58001      -2.01172      -0.30541
                        -----------------------------------------
Magnitude (a.u.)       :      2.11582
Magnitude (Debye)      :      5.37800

VIBRATIONAL FREQUENCIES
-----------------------

Scaling factor for frequencies =  1.000000000 (already applied!)

   0:         0.00 cm**-1
   1:         0.00 cm**-1
   2:         0.00 cm**-1
   3:         0.00 cm**-1
   4:         0.00 cm**-1
   5:         0.00 cm**-1
   6:        34.57 cm**-1
   7:        64.19 cm**-1
   8:       120.22 cm**-1
   9:       123.21 cm**-1
  10:       136.14 cm**-1
  11:       175.71 cm**-1
  12:       203.82 cm**-1
  13:       288.93 cm**-1
  14:       301.29 cm**-1
  15:       312.75 cm**-1
  16:       403.76 cm**-1
  17:       449.97 cm**-1
  18:       469.74 cm**-1
  19:       526.51 cm**-1
  20:       625.39 cm**-1
  21:       673.08 cm**-1
  22:       691.76 cm**-1
  23:       758.34 cm**-1
  24:       793.52 cm**-1
  25:       844.05 cm**-1
  26:       846.74 cm**-1
  27:       862.93 cm**-1
  28:       944.75 cm**-1
  29:       970.96 cm**-1
  30:       989.57 cm**-1
  31:      1015.60 cm**-1
  32:      1017.66 cm**-1
  33:      1094.99 cm**-1
  34:      1106.60 cm**-1
  35:      1149.74 cm**-1
  36:      1165.11 cm**-1
  37:      1189.58 cm**-1
  38:      1204.58 cm**-1
  39:      1254.04 cm**-1
  40:      1308.16 cm**-1
  41:      1348.33 cm**-1
  42:      1396.69 cm**-1
  43:      1426.75 cm**-1
  44:      1447.40 cm**-1
  45:      1466.85 cm**-1
  46:      1475.84 cm**-1
  47:      1507.45 cm**-1
  48:      1574.74 cm**-1
  49:      1613.49 cm**-1
  50:      1679.26 cm**-1
  51:      1683.56 cm**-1
  52:      2887.26 cm**-1
  53:      3026.88 cm**-1
  54:      3104.44 cm**-1
  55:      3138.82 cm**-1
  56:      3139.36 cm**-1
  57:      3157.02 cm**-1
  58:      3170.17 cm**-1
  59:      3179.52 cm**-1

IR SPECTRUM
-----------

 Mode   freq       eps      Int      T**2         TX        TY        TZ
       cm**-1   L/(mol*cm) km/mol    a.u.
----------------------------------------------------------------------------
  6:     34.57   0.000011    0.06  0.000103  (-0.002053  0.001022 -0.009882)
  7:     64.19   0.000495    2.50  0.002406  (-0.011996  0.005073 -0.047291)
  8:    120.22   0.001788    9.04  0.004641  ( 0.021835 -0.002879  0.064469)
  9:    123.21   0.001107    5.59  0.002803  ( 0.003749 -0.006543  0.052406)
 10:    136.14   0.000147    0.74  0.000337  ( 0.003678 -0.001140  0.017957)
 11:    175.71   0.000029    0.15  0.000051  ( 0.002387 -0.001406  0.006601)
 12:    203.82   0.003022   15.27  0.004626  ( 0.066487  0.000908 -0.014312)
 13:    288.93   0.002298   11.61  0.002482  (-0.010495  0.001812 -0.048672)
 14:    301.29   0.002377   12.01  0.002462  ( 0.010493 -0.048158 -0.005746)
 15:    312.75   0.005516   27.87  0.005504  ( 0.029174  0.068196 -0.001347)
 16:    403.76   0.000105    0.53  0.000082  (-0.000602 -0.001934  0.008799)
 17:    449.97   0.000099    0.50  0.000069  (-0.007694 -0.001993  0.002323)
 18:    469.74   0.001691    8.55  0.001123  (-0.007326  0.003662 -0.032500)
 19:    526.51   0.001445    7.30  0.000857  ( 0.022024  0.019110 -0.002544)
 20:    625.39   0.000464    2.35  0.000232  ( 0.009627  0.011723 -0.001236)
 21:    673.08   0.003332   16.84  0.001545  (-0.034698 -0.017308  0.006415)
 22:    691.76   0.004875   24.64  0.002199  (-0.010509  0.004327 -0.045499)
 23:    758.34   0.009292   46.96  0.003824  (-0.012475  0.005768 -0.060290)
 24:    793.52   0.016338   82.57  0.006425  ( 0.071174  0.035071 -0.011383)
 25:    844.05   0.005274   26.65  0.001950  ( 0.025507  0.035865 -0.003616)
 26:    846.74   0.000906    4.58  0.000334  (-0.004899 -0.000330 -0.017605)
 27:    862.93   0.004637   23.43  0.001677  (-0.009393  0.003595 -0.039695)
 28:    944.75   0.004288   21.67  0.001416  (-0.032120 -0.018914  0.005182)
 29:    970.96   0.000023    0.12  0.000008  (-0.000268 -0.000583  0.002669)
 30:    989.57   0.000153    0.77  0.000048  (-0.000241 -0.000086 -0.006945)
 31:   1015.60   0.006610   33.41  0.002031  (-0.021454 -0.039623  0.000957)
 32:   1017.66   0.000537    2.71  0.000165  (-0.002225  0.002245 -0.012437)
 33:   1094.99   0.047752  241.32  0.013609  ( 0.024710  0.113886  0.005325)
 34:   1106.60   0.005478   27.68  0.001545  ( 0.023484  0.031455 -0.001946)
 35:   1149.74   0.000311    1.57  0.000084  ( 0.000785 -0.000730  0.009123)
 36:   1165.11   0.001058    5.35  0.000283  (-0.011826  0.011460  0.003497)
 37:   1189.58   0.026037  131.58  0.006830  (-0.020145 -0.080095 -0.003060)
 38:   1204.58   0.040936  206.88  0.010605  ( 0.066836  0.078017 -0.007172)
 39:   1254.04   0.113427  573.21  0.028226  ( 0.044417  0.161935  0.005459)
 40:   1308.16   0.004946   25.00  0.001180  ( 0.025100  0.023225 -0.003245)
 41:   1348.33   0.001913    9.67  0.000443  ( 0.001755 -0.020860 -0.002114)
 42:   1396.69   0.007776   39.30  0.001737  ( 0.035160 -0.020334 -0.009365)
 43:   1426.75   0.000509    2.57  0.000111  ( 0.008995 -0.004943 -0.002428)
 44:   1447.40   0.004420   22.34  0.000953  ( 0.021524  0.021971 -0.002644)
 45:   1466.85   0.002443   12.34  0.000520  ( 0.003889 -0.000506  0.022456)
 46:   1475.84   0.002257   11.40  0.000477  (-0.010327  0.019041  0.002822)
 47:   1507.45   0.006572   33.21  0.001361  ( 0.021316  0.030048 -0.001813)
 48:   1574.74   0.013277   67.10  0.002631  ( 0.038230  0.033825 -0.005047)
 49:   1613.49   0.007137   36.07  0.001380  (-0.015473 -0.033777  0.000305)
 50:   1679.26   0.098337  496.96  0.018274  ( 0.118026  0.062929 -0.019599)
 51:   1683.56   0.092380  466.85  0.017123  (-0.051666  0.118255  0.021674)
 52:   2887.26   0.031299  158.17  0.003383  (-0.056629  0.004750  0.012387)
 53:   3026.88   0.005797   29.29  0.000598  (-0.013871 -0.020097  0.001166)
 54:   3104.44   0.004827   24.39  0.000485  (-0.004682  0.002232 -0.021409)
 55:   3138.82   0.002666   13.47  0.000265  (-0.008069  0.013757  0.003271)
 56:   3139.36   0.002353   11.89  0.000234  ( 0.014170 -0.004417 -0.003682)
 57:   3157.02   0.000039    0.20  0.000004  ( 0.001279  0.001476 -0.000103)
 58:   3170.17   0.000611    3.09  0.000060  ( 0.006347 -0.004025 -0.001912)
 59:   3179.52   0.000646    3.27  0.000063  (-0.004644  0.006261  0.001631)

--------------------------
THERMOCHEMISTRY AT 298.15K
--------------------------

Temperature         ... 298.15 K
Pressure            ... 1.00 atm
Total Mass          ... 164.16 AMU

Throughout the following assumptions are being made:
  (1) The electronic state is orbitally nondegenerate
  (2) There are no thermally accessible electronically excited states
  (3) Hindered rotations indicated by low frequency modes are not
      treated as such but are treated as vibrations and this may
      cause some error
  (4) All equations used are the standard statistical mechanics
      equations for an ideal gas
  (5) All vibrations are strictly harmonic

freq.      34.57  E(vib)   ...       0.54
freq.      64.19  E(vib)   ...       0.51
freq.     120.22  E(vib)   ...       0.44
freq.     123.21  E(vib)   ...       0.43
freq.     136.14  E(vib)   ...       0.42
freq.     175.71  E(vib)   ...       0.38
freq.     203.82  E(vib)   ...       0.35
freq.     288.93  E(vib)   ...       0.27
freq.     301.29  E(vib)   ...       0.26
freq.     312.75  E(vib)   ...       0.25
freq.     403.76  E(vib)   ...       0.19
freq.     449.97  E(vib)   ...       0.17
freq.     469.74  E(vib)   ...       0.16
freq.     526.51  E(vib)   ...       0.13
freq.     625.39  E(vib)   ...       0.09
freq.     673.08  E(vib)   ...       0.08
freq.     691.76  E(vib)   ...       0.07
freq.     758.34  E(vib)   ...       0.06
freq.     793.52  E(vib)   ...       0.05
freq.     844.05  E(vib)   ...       0.04
freq.     846.74  E(vib)   ...       0.04
freq.     862.93  E(vib)   ...       0.04
freq.     944.75  E(vib)   ...       0.03
freq.     970.96  E(vib)   ...       0.03
freq.     989.57  E(vib)   ...       0.02
freq.    1015.60  E(vib)   ...       0.02
freq.    1017.66  E(vib)   ...       0.02
freq.    1094.99  E(vib)   ...       0.02
freq.    1106.60  E(vib)   ...       0.02
freq.    1149.74  E(vib)   ...       0.01
freq.    1165.11  E(vib)   ...       0.01
freq.    1189.58  E(vib)   ...       0.01
freq.    1204.58  E(vib)   ...       0.01
freq.    1254.04  E(vib)   ...       0.01
freq.    1308.16  E(vib)   ...       0.01
freq.    1348.33  E(vib)   ...       0.01
freq.    1396.69  E(vib)   ...       0.00
freq.    1426.75  E(vib)   ...       0.00
freq.    1447.40  E(vib)   ...       0.00
freq.    1466.85  E(vib)   ...       0.00
freq.    1475.84  E(vib)   ...       0.00
freq.    1507.45  E(vib)   ...       0.00
freq.    1574.74  E(vib)   ...       0.00
freq.    1613.49  E(vib)   ...       0.00
freq.    1679.26  E(vib)   ...       0.00
freq.    1683.56  E(vib)   ...       0.00
freq.    2887.26  E(vib)   ...       0.00
freq.    3026.88  E(vib)   ...       0.00
freq.    3104.44  E(vib)   ...       0.00
freq.    3138.82  E(vib)   ...       0.00
freq.    3139.36  E(vib)   ...       0.00
freq.    3157.02  E(vib)   ...       0.00
freq.    3170.17  E(vib)   ...       0.00
freq.    3179.52  E(vib)   ...       0.00

------------
INNER ENERGY
------------

The inner energy is: U= E(el) + E(ZPE) + E(vib) + E(rot) + E(trans)
    E(el)   - is the total energy from the electronic structure calculation
              = E(kin-el) + E(nuc-el) + E(el-el) + E(nuc-nuc)
    E(ZPE)  - the the zero temperature vibrational energy from the frequency calculation
    E(vib)  - the the finite temperature correction to E(ZPE) due to population
              of excited vibrational states
    E(rot)  - is the rotational thermal energy
    E(trans)- is the translational thermal energy

Summary of contributions to the inner energy U:
Electronic energy                ...   -573.80202600 Eh
Zero point energy                ...      0.14931525 Eh      93.70 kcal/mol
Thermal vibrational correction   ...      0.00831424 Eh       5.22 kcal/mol
Thermal rotational correction    ...      0.00141627 Eh       0.89 kcal/mol
Thermal translational correction ...      0.00141627 Eh       0.89 kcal/mol
-----------------------------------------------------------------------
Total thermal energy                   -573.64156396 Eh

Summary of corrections to the electronic energy:
(perhaps to be used in another calculation)
Total thermal correction                  0.01114678 Eh       6.99 kcal/mol
Non-thermal (ZPE) correction              0.14931525 Eh      93.70 kcal/mol
-----------------------------------------------------------------------
Total correction                          0.16046203 Eh     100.69 kcal/mol

--------
ENTHALPY
--------

The enthalpy is H = U + kB*T
                kB is Boltzmann's constant
Total free energy                 ...   -573.64156396 Eh
Thermal Enthalpy correction       ...      0.00094421 Eh       0.59 kcal/mol
-----------------------------------------------------------------------
Total Enthalpy                    ...   -573.64061976 Eh

Note: Only C1 symmetry has been detected, increase convergence thresholds
      if your molecule has a higher symmetry. Symmetry factor of 1.0 is
      used for the rotational entropy correction.

Note: Rotational entropy computed according to Herzberg
Infrared and Raman Spectra, Chapter V,1, Van Nostrand Reinhold, 1945
Point Group:  C1, Symmetry Number:   1
Rotational constants in cm-1:     0.110641     0.014320     0.012710

Vibrational entropy computed according to the QRRHO of S. Grimme
Chem.Eur.J. 2012 18 9955

-------
ENTROPY
-------

The entropy contributions are T*S = T*(S(el)+S(vib)+S(rot)+S(trans))
     S(el)   - electronic entropy
     S(vib)  - vibrational entropy
     S(rot)  - rotational entropy
     S(trans)- translational entropy
The entropies will be listed as multiplied by the temperature to get
units of energy

Electronic entropy                ...      0.00000000 Eh      0.00 kcal/mol
Vibrational entropy               ...      0.01467326 Eh      9.21 kcal/mol
Rotational entropy                ...      0.01461552 Eh      9.17 kcal/mol
Translational entropy             ...      0.01957325 Eh     12.28 kcal/mol
-----------------------------------------------------------------------
Final entropy term                ...      0.04886203 Eh     30.66 kcal/mol

In case the symmetry of your molecule has not been determined correctly
or in case you have a reason to use a different symmetry number we print
out the resulting rotational entropy values for sn=1,12 :
 --------------------------------------------------------
|  sn= 1 | S(rot)=       0.01461552 Eh      9.17 kcal/mol|
|  sn= 2 | S(rot)=       0.01396106 Eh      8.76 kcal/mol|
|  sn= 3 | S(rot)=       0.01357823 Eh      8.52 kcal/mol|
|  sn= 4 | S(rot)=       0.01330661 Eh      8.35 kcal/mol|
|  sn= 5 | S(rot)=       0.01309592 Eh      8.22 kcal/mol|
|  sn= 6 | S(rot)=       0.01292377 Eh      8.11 kcal/mol|
|  sn= 7 | S(rot)=       0.01277823 Eh      8.02 kcal/mol|
|  sn= 8 | S(rot)=       0.01265215 Eh      7.94 kcal/mol|
|  sn= 9 | S(rot)=       0.01254094 Eh      7.87 kcal/mol|

                             ****ORCA TERMINATED NORMALLY****
TOTAL RUN TIME: 0 days 1 hours 10 minutes 53 seconds 803 msec
