                         Program Version 5.0.2 -  RELEASE  -
|  1> ! PW6B95 D3BJ def2-QZVP RIJK def2/JK tightSCF CPCM(THF)
|  2> ! sp Pal8
|  3>
|  4> *xyz 0 1
|  5>   C   -2.65955645754430     -0.37453074795316      0.50854457306209
|  6>   C   -2.26410208238352     -1.70743851308296      0.30634624566219
|  7>   C   -0.93001299805854     -2.00792465300870     -0.00131128417772
|  8>   C   -0.00073184670205     -0.97827174534720     -0.10504540579871
|  9>   C   -0.39431285851482      0.35224686559904      0.09642533746692
| 10>   C   -1.73173995028295      0.65016820057108      0.40446266899731
| 11>   H   -2.02295751633124      1.68470490026533      0.55787000693655
| 12>   H   -0.62899395684294     -3.03743663526783     -0.15664521020274
| 13>   H   1.03724293988542     -1.19816529771769     -0.34273192938716
| 14>   C   0.61897220427925      1.41995600008842     -0.02160898250088
| 15>   H   1.64101845833613      1.06573083148109     -0.26880122590979
| 16>   O   0.39412504222307      2.61309560804162      0.13220460588673
| 17>   H   -3.69751012816734     -0.16538433530463      0.74530420107536
| 18>   C   -3.30369562445972     -2.76988475043266      0.43015168233686
| 19>   O   -2.80467578029673     -4.00360100091334      0.21100213706057
| 20>   C   -3.76666362555778     -5.08928616488537      0.31602166383048
| 21>   H   -3.19510471529765     -5.99120419616638      0.10370274100442
| 22>   H   -4.56443919604337     -4.94651320861775     -0.41568157613270
| 23>   H   -4.18352208467478     -5.11547971908408      1.32491918127033
| 24>   O   -4.47599053876610     -2.55640380716483      0.69929171771990
| 25> *
| 26>
| 27>                          ****END OF INPUT****

CARTESIAN COORDINATES (ANGSTROEM)
---------------------------------
  C     -2.659556   -0.374531    0.508545
  C     -2.264102   -1.707439    0.306346
  C     -0.930013   -2.007925   -0.001311
  C     -0.000732   -0.978272   -0.105045
  C     -0.394313    0.352247    0.096425
  C     -1.731740    0.650168    0.404463
  H     -2.022958    1.684705    0.557870
  H     -0.628994   -3.037437   -0.156645
  H      1.037243   -1.198165   -0.342732
  C      0.618972    1.419956   -0.021609
  H      1.641018    1.065731   -0.268801
  O      0.394125    2.613096    0.132205
  H     -3.697510   -0.165384    0.745304
  C     -3.303696   -2.769885    0.430152
  O     -2.804676   -4.003601    0.211002
  C     -3.766664   -5.089286    0.316022
  H     -3.195105   -5.991204    0.103703
  H     -4.564439   -4.946513   -0.415682
  H     -4.183522   -5.115480    1.324919
  O     -4.475991   -2.556404    0.699292

 Total Charge           Charge          ....    0
 Multiplicity           Mult            ....    1
 Number of Electrons    NEL             ....   86
 Basis Dimension        Dim             ....  924

ORBITAL ENERGIES
----------------

  NO   OCC          E(Eh)            E(eV)
   0   2.0000     -19.352429      -526.6064
   1   2.0000     -19.306556      -525.3581
   2   2.0000     -19.297035      -525.0990
   3   2.0000     -10.442944      -284.1669
   4   2.0000     -10.397400      -282.9276
   5   2.0000     -10.350530      -281.6522
   6   2.0000     -10.338980      -281.3380
   7   2.0000     -10.330323      -281.1024
   8   2.0000     -10.326981      -281.0114
   9   2.0000     -10.325339      -280.9668
  10   2.0000     -10.323884      -280.9272
  11   2.0000     -10.323211      -280.9088
  12   2.0000      -1.144335       -31.1389
  13   2.0000      -1.085014       -29.5247
  14   2.0000      -1.056965       -28.7615
  15   2.0000      -0.909492       -24.7485
  16   2.0000      -0.823311       -22.4034
  17   2.0000      -0.794710       -21.6252
  18   2.0000      -0.756859       -20.5952
  19   2.0000      -0.696961       -18.9653
  20   2.0000      -0.650519       -17.7015
  21   2.0000      -0.617680       -16.8079
  22   2.0000      -0.595211       -16.1965
  23   2.0000      -0.567226       -15.4350
  24   2.0000      -0.524893       -14.2831
  25   2.0000      -0.516493       -14.0545
  26   2.0000      -0.511373       -13.9152
  27   2.0000      -0.491405       -13.3718
  28   2.0000      -0.480265       -13.0687
  29   2.0000      -0.462476       -12.5846
  30   2.0000      -0.457799       -12.4573
  31   2.0000      -0.447361       -12.1733
  32   2.0000      -0.442939       -12.0530
  33   2.0000      -0.429161       -11.6781
  34   2.0000      -0.408627       -11.1193
  35   2.0000      -0.390806       -10.6344
  36   2.0000      -0.389251       -10.5921
  37   2.0000      -0.374551       -10.1921
  38   2.0000      -0.337891        -9.1945
  39   2.0000      -0.317054        -8.6275
  40   2.0000      -0.294929        -8.0254
  41   2.0000      -0.294368        -8.0102
  42   2.0000      -0.292311        -7.9542
  43   0.0000      -0.091434        -2.4880
  44   0.0000      -0.027259        -0.7417
  45   0.0000      -0.011183        -0.3043
  46   0.0000       0.027373         0.7449
  47   0.0000       0.043213         1.1759

MULLIKEN ATOMIC CHARGES
-----------------------
   0 C :   -0.084427
   1 C :    0.046267
   2 C :   -0.096355
   3 C :   -0.101161
   4 C :    0.078770
   5 C :   -0.109322
   6 H :    0.135234
   7 H :    0.132506
   8 H :    0.132441
   9 C :    0.076993
  10 H :    0.129919
  11 O :   -0.365683
  12 H :    0.130918
  13 C :    0.357399
  14 O :   -0.345879
  15 C :   -0.082089
  16 H :    0.126454
  17 H :    0.127290
  18 H :    0.128291
  19 O :   -0.417565
Sum of atomic charges:   -0.0000000

LOEWDIN ATOMIC CHARGES
----------------------
   0 C :    0.111662
   1 C :   -0.097139
   2 C :    0.108283
   3 C :    0.106845
   4 C :   -0.120828
   5 C :    0.113258
   6 H :   -0.042990
   7 H :   -0.047408
   8 H :   -0.039952
   9 C :   -0.272482
  10 H :   -0.058757
  11 O :    0.299365
  12 H :   -0.042941
  13 C :   -0.739495
  14 O :    0.506493
  15 C :    0.106145
  16 H :   -0.064415
  17 H :   -0.060757
  18 H :   -0.060661
  19 O :    0.295771

  Mayer bond orders larger than 0.100000
B(  0-C ,  1-C ) :   1.2844 B(  0-C ,  5-C ) :   1.3910 B(  0-C , 12-H ) :   0.9464
B(  1-C ,  2-C ) :   1.3062 B(  1-C , 13-C ) :   1.0158 B(  2-C ,  3-C ) :   1.3790
B(  2-C ,  7-H ) :   0.9472 B(  3-C ,  4-C ) :   1.2916 B(  3-C ,  8-H ) :   0.9443
B(  4-C ,  5-C ) :   1.2592 B(  4-C ,  9-C ) :   1.0217 B(  5-C ,  6-H ) :   0.9438
B(  9-C , 10-H ) :   0.9719 B(  9-C , 11-O ) :   2.0031 B( 13-C , 14-O ) :   1.2049
B( 13-C , 19-O ) :   1.9045 B( 14-O , 15-C ) :   0.8461 B( 15-C , 16-H ) :   0.9624
B( 15-C , 17-H ) :   0.9623 B( 15-C , 18-H ) :   0.9622

Dispersion correction           -0.010622251
FINAL SINGLE POINT ENERGY      -574.433903232202

DIPOLE MOMENT
-------------
                                X             Y             Z
Electronic contribution:      1.65065       5.11512       0.11532
Nuclear contribution   :     -0.98781      -7.13992      -0.43949
                        -----------------------------------------
Total Dipole Moment    :      0.66285      -2.02480      -0.32417
                        -----------------------------------------
Magnitude (a.u.)       :      2.15505
Magnitude (Debye)      :      5.47771

Rotational constants in cm-1:     0.110641     0.014320     0.012710
Rotational constants in MHz :  3316.945266   429.290286   381.022419

                             ****ORCA TERMINATED NORMALLY****
TOTAL RUN TIME: 0 days 0 hours 5 minutes 51 seconds 205 msec
